v 0.20000000000000001 eval {set sim_annotation {1 sending message using Packet_classification: 1}}
s -t 0.200000000 -Hs 1 -Hd -2 -Ni 1 -Nx 200.00 -Ny 0.00 -Nz 0.00 -Ne -1.000000 -Nl AGT -Nw --- -Ma 0 -Md 0 -Ms 0 -Mt 0 -Is 1.42 -Id -1.42 -It message -Il 200 -If 0 -Ii 0 -Iv 32 
s -t 0.202728396 -Hs 1 -Hd -2 -Ni 1 -Nx 200.00 -Ny 0.00 -Nz 0.00 -Ne -1.000000 -Nl MAC -Nw --- -Ma 0 -Md 1000000 -Ms ffff0008 -Mt 0 -Is 1.42 -Id -1.42 -It message -Il 220 -If 0 -Ii 0 -Iv 32 
r -t 0.204488929 -Hs 7 -Hd -2 -Ni 7 -Nx 200.00 -Ny 160.00 -Nz 0.00 -Ne -1.000000 -Nl MAC -Nw --- -Ma 0 -Md 1000000 -Ms ffff0008 -Mt 0 -Is 1.42 -Id -1.42 -It message -Il 220 -If 0 -Ii 0 -Iv 32 
r -t 0.204489062 -Hs 0 -Hd -2 -Ni 0 -Nx 0.00 -Ny 0.00 -Nz 0.00 -Ne -1.000000 -Nl MAC -Nw --- -Ma 0 -Md 1000000 -Ms ffff0008 -Mt 0 -Is 1.42 -Id -1.42 -It message -Il 220 -If 0 -Ii 0 -Iv 32 
r -t 0.204489062 -Hs 2 -Hd -2 -Ni 2 -Nx 400.00 -Ny 0.00 -Nz 0.00 -Ne -1.000000 -Nl MAC -Nw --- -Ma 0 -Md 1000000 -Ms ffff0008 -Mt 0 -Is 1.42 -Id -1.42 -It message -Il 220 -If 0 -Ii 0 -Iv 32 
r -t 0.204513929 -Hs 7 -Hd -2 -Ni 7 -Nx 200.00 -Ny 160.00 -Nz 0.00 -Ne -1.000000 -Nl AGT -Nw --- -Ma 0 -Md 1000000 -Ms ffff0008 -Mt 0 -Is 1.42 -Id -1.42 -It message -Il 220 -If 0 -Ii 0 -Iv 31 
v 0.20451392910557123 eval {set sim_annotation {7 received RREQ {1:first message} from 1}}
v 0.20451392910557123 eval {set sim_annotation {7 Data Source 1}}
v 0.20451392910557123 eval {set sim_annotation {7 sending RREP message 1}}
v 0.20451392910557123 eval {set sim_annotation {7  Message Header  1}}
s -t 0.204513929 -Hs 7 -Hd -2 -Ni 7 -Nx 200.00 -Ny 160.00 -Nz 0.00 -Ne -1.000000 -Nl AGT -Nw --- -Ma 0 -Md 0 -Ms 0 -Mt 0 -Is 7.42 -Id -1.42 -It message -Il 220 -If 0 -Ii 1 -Iv 32 
r -t 0.204514062 -Hs 0 -Hd -2 -Ni 0 -Nx 0.00 -Ny 0.00 -Nz 0.00 -Ne -1.000000 -Nl AGT -Nw --- -Ma 0 -Md 1000000 -Ms ffff0008 -Mt 0 -Is 1.42 -Id -1.42 -It message -Il 220 -If 0 -Ii 0 -Iv 31 
v 0.20451406243890458 eval {set sim_annotation {0 received RREQ {1:first message} from 1}}
v 0.20451406243890458 eval {set sim_annotation {0 Data Source 1}}
v 0.20451406243890458 eval {set sim_annotation {0 sending RREP message 1}}
v 0.20451406243890458 eval {set sim_annotation {0  Message Header  1}}
s -t 0.204514062 -Hs 0 -Hd -2 -Ni 0 -Nx 0.00 -Ny 0.00 -Nz 0.00 -Ne -1.000000 -Nl AGT -Nw --- -Ma 0 -Md 0 -Ms 0 -Mt 0 -Is 0.42 -Id -1.42 -It message -Il 220 -If 0 -Ii 2 -Iv 32 
r -t 0.204514062 -Hs 2 -Hd -2 -Ni 2 -Nx 400.00 -Ny 0.00 -Nz 0.00 -Ne -1.000000 -Nl AGT -Nw --- -Ma 0 -Md 1000000 -Ms ffff0008 -Mt 0 -Is 1.42 -Id -1.42 -It message -Il 220 -If 0 -Ii 0 -Iv 31 
v 0.20451406243890458 eval {set sim_annotation {2 received RREQ {1:first message} from 1}}
v 0.20451406243890458 eval {set sim_annotation {2 Data Source 1}}
v 0.20451406243890458 eval {set sim_annotation {2 sending RREP message 1}}
v 0.20451406243890458 eval {set sim_annotation {2  Message Header  1}}
s -t 0.204514062 -Hs 2 -Hd -2 -Ni 2 -Nx 400.00 -Ny 0.00 -Nz 0.00 -Ne -1.000000 -Nl AGT -Nw --- -Ma 0 -Md 0 -Ms 0 -Mt 0 -Is 2.42 -Id -1.42 -It message -Il 220 -If 0 -Ii 3 -Iv 32 
s -t 0.206120289 -Hs 0 -Hd -2 -Ni 0 -Nx 0.00 -Ny 0.00 -Nz 0.00 -Ne -1.000000 -Nl MAC -Nw --- -Ma 0 -Md 0 -Ms ffff0008 -Mt 0 -Is 0.42 -Id -1.42 -It message -Il 240 -If 0 -Ii 2 -Iv 32 
s -t 0.207480976 -Hs 7 -Hd -2 -Ni 7 -Nx 200.00 -Ny 160.00 -Nz 0.00 -Ne -1.000000 -Nl MAC -Nw --- -Ma 0 -Md 7000000 -Ms ffff0008 -Mt 0 -Is 7.42 -Id -1.42 -It message -Il 240 -If 0 -Ii 1 -Iv 32 
d -t 0.209401509 -Hs 1 -Hd -2 -Ni 1 -Nx 200.00 -Ny 0.00 -Nz 0.00 -Ne -1.000000 -Nl MAC -Nw COL -Ma 0 -Md 7000000 -Ms ffff0008 -Mt 0 -Is 7.42 -Id -1.42 -It message -Il 240 -If 0 -Ii 1 -Iv 32 
d -t 0.209401642 -Hs 6 -Hd -2 -Ni 6 -Nx 0.00 -Ny 160.00 -Nz 0.00 -Ne -1.000000 -Nl MAC -Nw COL -Ma 0 -Md 7000000 -Ms ffff0008 -Mt 0 -Is 7.42 -Id -1.42 -It message -Il 240 -If 0 -Ii 1 -Iv 32 
d -t 0.209401642 -Hs 8 -Hd -2 -Ni 8 -Nx 400.00 -Ny 160.00 -Nz 0.00 -Ne -1.000000 -Nl MAC -Nw COL -Ma 0 -Md 7000000 -Ms ffff0008 -Mt 0 -Is 7.42 -Id -1.42 -It message -Il 240 -If 0 -Ii 1 -Iv 32 
d -t 0.209401829 -Hs 2 -Hd -2 -Ni 2 -Nx 400.00 -Ny 0.00 -Nz 0.00 -Ne -1.000000 -Nl MAC -Nw COL -Ma 0 -Md 7000000 -Ms ffff0008 -Mt 0 -Is 7.42 -Id -1.42 -It message -Il 240 -If 0 -Ii 1 -Iv 32 
s -t 0.209850796 -Hs 2 -Hd -2 -Ni 2 -Nx 400.00 -Ny 0.00 -Nz 0.00 -Ne -1.000000 -Nl MAC -Nw --- -Ma 0 -Md 2000000 -Ms ffff0008 -Mt 0 -Is 2.42 -Id -1.42 -It message -Il 240 -If 0 -Ii 3 -Iv 32 
r -t 0.211771330 -Hs 8 -Hd -2 -Ni 8 -Nx 400.00 -Ny 160.00 -Nz 0.00 -Ne -1.000000 -Nl MAC -Nw --- -Ma 0 -Md 2000000 -Ms ffff0008 -Mt 0 -Is 2.42 -Id -1.42 -It message -Il 240 -If 0 -Ii 3 -Iv 32 
r -t 0.211771463 -Hs 1 -Hd -2 -Ni 1 -Nx 200.00 -Ny 0.00 -Nz 0.00 -Ne -1.000000 -Nl MAC -Nw --- -Ma 0 -Md 2000000 -Ms ffff0008 -Mt 0 -Is 2.42 -Id -1.42 -It message -Il 240 -If 0 -Ii 3 -Iv 32 
r -t 0.211771463 -Hs 3 -Hd -2 -Ni 3 -Nx 600.00 -Ny 0.00 -Nz 0.00 -Ne -1.000000 -Nl MAC -Nw --- -Ma 0 -Md 2000000 -Ms ffff0008 -Mt 0 -Is 2.42 -Id -1.42 -It message -Il 240 -If 0 -Ii 3 -Iv 32 
r -t 0.211796330 -Hs 8 -Hd -2 -Ni 8 -Nx 400.00 -Ny 160.00 -Nz 0.00 -Ne -1.000000 -Nl AGT -Nw --- -Ma 0 -Md 2000000 -Ms ffff0008 -Mt 0 -Is 2.42 -Id -1.42 -It message -Il 240 -If 0 -Ii 3 -Iv 31 
v 0.21179632959272301 eval {set sim_annotation {8 received RREQ {1:first message} from 2}}
v 0.21179632959272301 eval {set sim_annotation {8 Data Source 2}}
v 0.21179632959272301 eval {set sim_annotation {8 sending RREP message 1}}
v 0.21179632959272301 eval {set sim_annotation {8  Message Header  1}}
s -t 0.211796330 -Hs 8 -Hd -2 -Ni 8 -Nx 400.00 -Ny 160.00 -Nz 0.00 -Ne -1.000000 -Nl AGT -Nw --- -Ma 0 -Md 0 -Ms 0 -Mt 0 -Is 8.42 -Id -1.42 -It message -Il 240 -If 0 -Ii 4 -Iv 32 
r -t 0.211796463 -Hs 1 -Hd -2 -Ni 1 -Nx 200.00 -Ny 0.00 -Nz 0.00 -Ne -1.000000 -Nl AGT -Nw --- -Ma 0 -Md 2000000 -Ms ffff0008 -Mt 0 -Is 2.42 -Id -1.42 -It message -Il 240 -If 0 -Ii 3 -Iv 31 
v 0.21179646292605636 eval {set sim_annotation {1 received RREP message 1 from 2}}
r -t 0.211796463 -Hs 3 -Hd -2 -Ni 3 -Nx 600.00 -Ny 0.00 -Nz 0.00 -Ne -1.000000 -Nl AGT -Nw --- -Ma 0 -Md 2000000 -Ms ffff0008 -Mt 0 -Is 2.42 -Id -1.42 -It message -Il 240 -If 0 -Ii 3 -Iv 31 
v 0.21179646292605636 eval {set sim_annotation {3 received RREQ {1:first message} from 2}}
v 0.21179646292605636 eval {set sim_annotation {3 Data Source 2}}
v 0.21179646292605636 eval {set sim_annotation {3 sending RREP message 1}}
v 0.21179646292605636 eval {set sim_annotation {3  Message Header  1}}
s -t 0.211796463 -Hs 3 -Hd -2 -Ni 3 -Nx 600.00 -Ny 0.00 -Nz 0.00 -Ne -1.000000 -Nl AGT -Nw --- -Ma 0 -Md 0 -Ms 0 -Mt 0 -Is 3.42 -Id -1.42 -It message -Il 240 -If 0 -Ii 5 -Iv 32 
s -t 0.216367347 -Hs 8 -Hd -2 -Ni 8 -Nx 400.00 -Ny 160.00 -Nz 0.00 -Ne -1.000000 -Nl MAC -Nw --- -Ma 0 -Md 8000000 -Ms ffff0008 -Mt 0 -Is 8.42 -Id -1.42 -It message -Il 260 -If 0 -Ii 4 -Iv 32 
r -t 0.218447880 -Hs 2 -Hd -2 -Ni 2 -Nx 400.00 -Ny 0.00 -Nz 0.00 -Ne -1.000000 -Nl MAC -Nw --- -Ma 0 -Md 8000000 -Ms ffff0008 -Mt 0 -Is 8.42 -Id -1.42 -It message -Il 260 -If 0 -Ii 4 -Iv 32 
r -t 0.218448014 -Hs 7 -Hd -2 -Ni 7 -Nx 200.00 -Ny 160.00 -Nz 0.00 -Ne -1.000000 -Nl MAC -Nw --- -Ma 0 -Md 8000000 -Ms ffff0008 -Mt 0 -Is 8.42 -Id -1.42 -It message -Il 260 -If 0 -Ii 4 -Iv 32 
r -t 0.218448014 -Hs 9 -Hd -2 -Ni 9 -Nx 600.00 -Ny 160.00 -Nz 0.00 -Ne -1.000000 -Nl MAC -Nw --- -Ma 0 -Md 8000000 -Ms ffff0008 -Mt 0 -Is 8.42 -Id -1.42 -It message -Il 260 -If 0 -Ii 4 -Iv 32 
r -t 0.218472880 -Hs 2 -Hd -2 -Ni 2 -Nx 400.00 -Ny 0.00 -Nz 0.00 -Ne -1.000000 -Nl AGT -Nw --- -Ma 0 -Md 8000000 -Ms ffff0008 -Mt 0 -Is 8.42 -Id -1.42 -It message -Il 260 -If 0 -Ii 4 -Iv 31 
v 0.21847288044459617 eval {set sim_annotation {2 received RREP message 1 from 8}}
r -t 0.218473014 -Hs 7 -Hd -2 -Ni 7 -Nx 200.00 -Ny 160.00 -Nz 0.00 -Ne -1.000000 -Nl AGT -Nw --- -Ma 0 -Md 8000000 -Ms ffff0008 -Mt 0 -Is 8.42 -Id -1.42 -It message -Il 260 -If 0 -Ii 4 -Iv 31 
v 0.21847301377792952 eval {set sim_annotation {7 received RREP message 1 from 8}}
r -t 0.218473014 -Hs 9 -Hd -2 -Ni 9 -Nx 600.00 -Ny 160.00 -Nz 0.00 -Ne -1.000000 -Nl AGT -Nw --- -Ma 0 -Md 8000000 -Ms ffff0008 -Mt 0 -Is 8.42 -Id -1.42 -It message -Il 260 -If 0 -Ii 4 -Iv 31 
v 0.21847301377792952 eval {set sim_annotation {9 received RREQ {1:first message} from 8}}
v 0.21847301377792952 eval {set sim_annotation {9 Data Source 8}}
v 0.21847301377792952 eval {set sim_annotation {9 sending RREP message 1}}
v 0.21847301377792952 eval {set sim_annotation {9  Message Header  1}}
s -t 0.218473014 -Hs 9 -Hd -2 -Ni 9 -Nx 600.00 -Ny 160.00 -Nz 0.00 -Ne -1.000000 -Nl AGT -Nw --- -Ma 0 -Md 0 -Ms 0 -Mt 0 -Is 9.42 -Id -1.42 -It message -Il 260 -If 0 -Ii 6 -Iv 32 
s -t 0.221339468 -Hs 9 -Hd -2 -Ni 9 -Nx 600.00 -Ny 160.00 -Nz 0.00 -Ne -1.000000 -Nl MAC -Nw --- -Ma 0 -Md 9000000 -Ms ffff0008 -Mt 0 -Is 9.42 -Id -1.42 -It message -Il 280 -If 0 -Ii 6 -Iv 32 
s -t 0.222110114 -Hs 3 -Hd -2 -Ni 3 -Nx 600.00 -Ny 0.00 -Nz 0.00 -Ne -1.000000 -Nl MAC -Nw --- -Ma 0 -Md 3000000 -Ms ffff0008 -Mt 0 -Is 3.42 -Id -1.42 -It message -Il 260 -If 0 -Ii 5 -Iv 32 
d -t 0.224190781 -Hs 2 -Hd -2 -Ni 2 -Nx 400.00 -Ny 0.00 -Nz 0.00 -Ne -1.000000 -Nl MAC -Nw COL -Ma 0 -Md 3000000 -Ms ffff0008 -Mt 0 -Is 3.42 -Id -1.42 -It message -Il 260 -If 0 -Ii 5 -Iv 32 
d -t 0.224190781 -Hs 4 -Hd -2 -Ni 4 -Nx 800.00 -Ny 0.00 -Nz 0.00 -Ne -1.000000 -Nl MAC -Nw COL -Ma 0 -Md 3000000 -Ms ffff0008 -Mt 0 -Is 3.42 -Id -1.42 -It message -Il 260 -If 0 -Ii 5 -Iv 32 
d -t 0.224190968 -Hs 8 -Hd -2 -Ni 8 -Nx 400.00 -Ny 160.00 -Nz 0.00 -Ne -1.000000 -Nl MAC -Nw COL -Ma 0 -Md 3000000 -Ms ffff0008 -Mt 0 -Is 3.42 -Id -1.42 -It message -Il 260 -If 0 -Ii 5 -Iv 32 
d -t 0.224190968 -Hs 10 -Hd -2 -Ni 10 -Nx 800.00 -Ny 160.00 -Nz 0.00 -Ne -1.000000 -Nl MAC -Nw COL -Ma 0 -Md 3000000 -Ms ffff0008 -Mt 0 -Is 3.42 -Id -1.42 -It message -Il 260 -If 0 -Ii 5 -Iv 32 
d -t 0.224191448 -Hs 1 -Hd -2 -Ni 1 -Nx 200.00 -Ny 0.00 -Nz 0.00 -Ne -1.000000 -Nl MAC -Nw COL -Ma 0 -Md 3000000 -Ms ffff0008 -Mt 0 -Is 3.42 -Id -1.42 -It message -Il 260 -If 0 -Ii 5 -Iv 32 
d -t 0.224191448 -Hs 5 -Hd -2 -Ni 5 -Nx 1000.00 -Ny 0.00 -Nz 0.00 -Ne -1.000000 -Nl MAC -Nw COL -Ma 0 -Md 3000000 -Ms ffff0008 -Mt 0 -Is 3.42 -Id -1.42 -It message -Il 260 -If 0 -Ii 5 -Iv 32 
d -t 0.224191550 -Hs 7 -Hd -2 -Ni 7 -Nx 200.00 -Ny 160.00 -Nz 0.00 -Ne -1.000000 -Nl MAC -Nw COL -Ma 0 -Md 3000000 -Ms ffff0008 -Mt 0 -Is 3.42 -Id -1.42 -It message -Il 260 -If 0 -Ii 5 -Iv 32 
d -t 0.224191550 -Hs 11 -Hd -2 -Ni 11 -Nx 1000.00 -Ny 160.00 -Nz 0.00 -Ne -1.000000 -Nl MAC -Nw COL -Ma 0 -Md 3000000 -Ms ffff0008 -Mt 0 -Is 3.42 -Id -1.42 -It message -Il 260 -If 0 -Ii 5 -Iv 32 
v 0.40000000000000002 eval {set sim_annotation {48 sending message using Packet_classification: 2}}
s -t 0.400000000 -Hs 48 -Hd -2 -Ni 48 -Nx 0.00 -Ny 1320.00 -Nz 0.00 -Ne -1.000000 -Nl AGT -Nw --- -Ma 0 -Md 0 -Ms 0 -Mt 0 -Is 48.42 -Id -1.42 -It message -Il 600 -If 0 -Ii 7 -Iv 32 
s -t 0.409625677 -Hs 48 -Hd -2 -Ni 48 -Nx 0.00 -Ny 1320.00 -Nz 0.00 -Ne -1.000000 -Nl MAC -Nw --- -Ma 0 -Md 30000000 -Ms ffff0008 -Mt 0 -Is 48.42 -Id -1.42 -It message -Il 620 -If 0 -Ii 7 -Iv 32 
r -t 0.414586210 -Hs 54 -Hd -2 -Ni 54 -Nx 0.00 -Ny 1480.00 -Nz 0.00 -Ne -1.000000 -Nl MAC -Nw --- -Ma 0 -Md 30000000 -Ms ffff0008 -Mt 0 -Is 48.42 -Id -1.42 -It message -Il 620 -If 0 -Ii 7 -Iv 32 
r -t 0.414586343 -Hs 49 -Hd -2 -Ni 49 -Nx 200.00 -Ny 1320.00 -Nz 0.00 -Ne -1.000000 -Nl MAC -Nw --- -Ma 0 -Md 30000000 -Ms ffff0008 -Mt 0 -Is 48.42 -Id -1.42 -It message -Il 620 -If 0 -Ii 7 -Iv 32 
r -t 0.414611210 -Hs 54 -Hd -2 -Ni 54 -Nx 0.00 -Ny 1480.00 -Nz 0.00 -Ne -1.000000 -Nl AGT -Nw --- -Ma 0 -Md 30000000 -Ms ffff0008 -Mt 0 -Is 48.42 -Id -1.42 -It message -Il 620 -If 0 -Ii 7 -Iv 31 
v 0.41461120992450168 eval {set sim_annotation {54 received RREQ {2:outbound RREQ} from 48}}
v 0.41461120992450168 eval {set sim_annotation {54 Data Source 48}}
v 0.41461120992450168 eval {set sim_annotation {54 sending RREP message 2}}
v 0.41461120992450168 eval {set sim_annotation {54  Message Header  2}}
s -t 0.414611210 -Hs 54 -Hd -2 -Ni 54 -Nx 0.00 -Ny 1480.00 -Nz 0.00 -Ne -1.000000 -Nl AGT -Nw --- -Ma 0 -Md 0 -Ms 0 -Mt 0 -Is 54.42 -Id -1.42 -It message -Il 620 -If 0 -Ii 8 -Iv 32 
r -t 0.414611343 -Hs 49 -Hd -2 -Ni 49 -Nx 200.00 -Ny 1320.00 -Nz 0.00 -Ne -1.000000 -Nl AGT -Nw --- -Ma 0 -Md 30000000 -Ms ffff0008 -Mt 0 -Is 48.42 -Id -1.42 -It message -Il 620 -If 0 -Ii 7 -Iv 31 
v 0.414611343257835 eval {set sim_annotation {49 received RREQ {2:outbound RREQ} from 48}}
v 0.414611343257835 eval {set sim_annotation {49 Data Source 48}}
v 0.414611343257835 eval {set sim_annotation {49 sending RREP message 2}}
v 0.414611343257835 eval {set sim_annotation {49  Message Header  2}}
s -t 0.414611343 -Hs 49 -Hd -2 -Ni 49 -Nx 200.00 -Ny 1320.00 -Nz 0.00 -Ne -1.000000 -Nl AGT -Nw --- -Ma 0 -Md 0 -Ms 0 -Mt 0 -Is 49.42 -Id -1.42 -It message -Il 620 -If 0 -Ii 9 -Iv 32 
s -t 0.421272911 -Hs 49 -Hd -2 -Ni 49 -Nx 200.00 -Ny 1320.00 -Nz 0.00 -Ne -1.000000 -Nl MAC -Nw --- -Ma 0 -Md 31000000 -Ms ffff0008 -Mt 0 -Is 49.42 -Id -1.42 -It message -Il 640 -If 0 -Ii 9 -Iv 32 
s -t 0.424233487 -Hs 54 -Hd -2 -Ni 54 -Nx 0.00 -Ny 1480.00 -Nz 0.00 -Ne -1.000000 -Nl MAC -Nw --- -Ma 0 -Md 36000000 -Ms ffff0008 -Mt 0 -Is 54.42 -Id -1.42 -It message -Il 640 -If 0 -Ii 8 -Iv 32 
r -t 0.426393577 -Hs 50 -Hd -2 -Ni 50 -Nx 400.00 -Ny 1320.00 -Nz 0.00 -Ne -1.000000 -Nl MAC -Nw --- -Ma 0 -Md 31000000 -Ms ffff0008 -Mt 0 -Is 49.42 -Id -1.42 -It message -Il 640 -If 0 -Ii 9 -Iv 32 
r -t 0.426418577 -Hs 50 -Hd -2 -Ni 50 -Nx 400.00 -Ny 1320.00 -Nz 0.00 -Ne -1.000000 -Nl AGT -Nw --- -Ma 0 -Md 31000000 -Ms ffff0008 -Mt 0 -Is 49.42 -Id -1.42 -It message -Il 640 -If 0 -Ii 9 -Iv 31 
v 0.42641857728745974 eval {set sim_annotation {50 received RREQ {2:outbound RREQ} from 49}}
v 0.42641857728745974 eval {set sim_annotation {50 Data Source 49}}
v 0.42641857728745974 eval {set sim_annotation {50 sending RREP message 2}}
v 0.42641857728745974 eval {set sim_annotation {50  Message Header  2}}
s -t 0.426418577 -Hs 50 -Hd -2 -Ni 50 -Nx 400.00 -Ny 1320.00 -Nz 0.00 -Ne -1.000000 -Nl AGT -Nw --- -Ma 0 -Md 0 -Ms 0 -Mt 0 -Is 50.42 -Id -1.42 -It message -Il 640 -If 0 -Ii 10 -Iv 32 
d -t 0.429354020 -Hs 48 -Hd -2 -Ni 48 -Nx 0.00 -Ny 1320.00 -Nz 0.00 -Ne -1.000000 -Nl MAC -Nw COL -Ma 0 -Md 36000000 -Ms ffff0008 -Mt 0 -Is 54.42 -Id -1.42 -It message -Il 640 -If 0 -Ii 8 -Iv 32 
d -t 0.429354154 -Hs 55 -Hd -2 -Ni 55 -Nx 200.00 -Ny 1480.00 -Nz 0.00 -Ne -1.000000 -Nl MAC -Nw COL -Ma 0 -Md 36000000 -Ms ffff0008 -Mt 0 -Is 54.42 -Id -1.42 -It message -Il 640 -If 0 -Ii 8 -Iv 32 
d -t 0.429354820 -Hs 56 -Hd -2 -Ni 56 -Nx 400.00 -Ny 1480.00 -Nz 0.00 -Ne -1.000000 -Nl MAC -Nw COL -Ma 0 -Md 36000000 -Ms ffff0008 -Mt 0 -Is 54.42 -Id -1.42 -It message -Il 640 -If 0 -Ii 8 -Iv 32 
s -t 0.435413863 -Hs 50 -Hd -2 -Ni 50 -Nx 400.00 -Ny 1320.00 -Nz 0.00 -Ne -1.000000 -Nl MAC -Nw --- -Ma 0 -Md 32000000 -Ms ffff0008 -Mt 0 -Is 50.42 -Id -1.42 -It message -Il 660 -If 0 -Ii 10 -Iv 32 
r -t 0.440694396 -Hs 56 -Hd -2 -Ni 56 -Nx 400.00 -Ny 1480.00 -Nz 0.00 -Ne -1.000000 -Nl MAC -Nw --- -Ma 0 -Md 32000000 -Ms ffff0008 -Mt 0 -Is 50.42 -Id -1.42 -It message -Il 660 -If 0 -Ii 10 -Iv 32 
r -t 0.440694529 -Hs 49 -Hd -2 -Ni 49 -Nx 200.00 -Ny 1320.00 -Nz 0.00 -Ne -1.000000 -Nl MAC -Nw --- -Ma 0 -Md 32000000 -Ms ffff0008 -Mt 0 -Is 50.42 -Id -1.42 -It message -Il 660 -If 0 -Ii 10 -Iv 32 
r -t 0.440694529 -Hs 51 -Hd -2 -Ni 51 -Nx 600.00 -Ny 1320.00 -Nz 0.00 -Ne -1.000000 -Nl MAC -Nw --- -Ma 0 -Md 32000000 -Ms ffff0008 -Mt 0 -Is 50.42 -Id -1.42 -It message -Il 660 -If 0 -Ii 10 -Iv 32 
r -t 0.440719396 -Hs 56 -Hd -2 -Ni 56 -Nx 400.00 -Ny 1480.00 -Nz 0.00 -Ne -1.000000 -Nl AGT -Nw --- -Ma 0 -Md 32000000 -Ms ffff0008 -Mt 0 -Is 50.42 -Id -1.42 -It message -Il 660 -If 0 -Ii 10 -Iv 31 
v 0.44071939615728611 eval {set sim_annotation {56 received RREQ {2:outbound RREQ} from 50}}
v 0.44071939615728611 eval {set sim_annotation {56 Data Source 50}}
v 0.44071939615728611 eval {set sim_annotation {56 sending RREP message 2}}
v 0.44071939615728611 eval {set sim_annotation {56  Message Header  2}}
s -t 0.440719396 -Hs 56 -Hd -2 -Ni 56 -Nx 400.00 -Ny 1480.00 -Nz 0.00 -Ne -1.000000 -Nl AGT -Nw --- -Ma 0 -Md 0 -Ms 0 -Mt 0 -Is 56.42 -Id -1.42 -It message -Il 660 -If 0 -Ii 11 -Iv 32 
r -t 0.440719529 -Hs 49 -Hd -2 -Ni 49 -Nx 200.00 -Ny 1320.00 -Nz 0.00 -Ne -1.000000 -Nl AGT -Nw --- -Ma 0 -Md 32000000 -Ms ffff0008 -Mt 0 -Is 50.42 -Id -1.42 -It message -Il 660 -If 0 -Ii 10 -Iv 31 
v 0.44071952949061943 eval {set sim_annotation {49 received RREP message 2 from 50}}
r -t 0.440719529 -Hs 51 -Hd -2 -Ni 51 -Nx 600.00 -Ny 1320.00 -Nz 0.00 -Ne -1.000000 -Nl AGT -Nw --- -Ma 0 -Md 32000000 -Ms ffff0008 -Mt 0 -Is 50.42 -Id -1.42 -It message -Il 660 -If 0 -Ii 10 -Iv 31 
v 0.44071952949061943 eval {set sim_annotation {51 received RREQ {2:outbound RREQ} from 50}}
v 0.44071952949061943 eval {set sim_annotation {51 Data Source 50}}
v 0.44071952949061943 eval {set sim_annotation {51 sending RREP message 2}}
v 0.44071952949061943 eval {set sim_annotation {51  Message Header  2}}
s -t 0.440719529 -Hs 51 -Hd -2 -Ni 51 -Nx 600.00 -Ny 1320.00 -Nz 0.00 -Ne -1.000000 -Nl AGT -Nw --- -Ma 0 -Md 0 -Ms 0 -Mt 0 -Is 51.42 -Id -1.42 -It message -Il 660 -If 0 -Ii 12 -Iv 32 
s -t 0.443825276 -Hs 56 -Hd -2 -Ni 56 -Nx 400.00 -Ny 1480.00 -Nz 0.00 -Ne -1.000000 -Nl MAC -Nw --- -Ma 0 -Md 38000000 -Ms ffff0008 -Mt 0 -Is 56.42 -Id -1.42 -It message -Il 680 -If 0 -Ii 11 -Iv 32 
s -t 0.447931386 -Hs 51 -Hd -2 -Ni 51 -Nx 600.00 -Ny 1320.00 -Nz 0.00 -Ne -1.000000 -Nl MAC -Nw --- -Ma 0 -Md 33000000 -Ms ffff0008 -Mt 0 -Is 51.42 -Id -1.42 -It message -Il 680 -If 0 -Ii 12 -Iv 32 
r -t 0.449265942 -Hs 55 -Hd -2 -Ni 55 -Nx 200.00 -Ny 1480.00 -Nz 0.00 -Ne -1.000000 -Nl MAC -Nw --- -Ma 0 -Md 38000000 -Ms ffff0008 -Mt 0 -Is 56.42 -Id -1.42 -It message -Il 680 -If 0 -Ii 11 -Iv 32 
r -t 0.449290942 -Hs 55 -Hd -2 -Ni 55 -Nx 200.00 -Ny 1480.00 -Nz 0.00 -Ne -1.000000 -Nl AGT -Nw --- -Ma 0 -Md 38000000 -Ms ffff0008 -Mt 0 -Is 56.42 -Id -1.42 -It message -Il 680 -If 0 -Ii 11 -Iv 31 
v 0.44929094231217293 eval {set sim_annotation {55 received RREQ {2:outbound RREQ} from 56}}
v 0.44929094231217293 eval {set sim_annotation {55 Data Source 56}}
v 0.44929094231217293 eval {set sim_annotation {55 sending RREP message 2}}
v 0.44929094231217293 eval {set sim_annotation {55  Message Header  2}}
s -t 0.449290942 -Hs 55 -Hd -2 -Ni 55 -Nx 200.00 -Ny 1480.00 -Nz 0.00 -Ne -1.000000 -Nl AGT -Nw --- -Ma 0 -Md 0 -Ms 0 -Mt 0 -Is 55.42 -Id -1.42 -It message -Il 680 -If 0 -Ii 13 -Iv 32 
d -t 0.453371920 -Hs 57 -Hd -2 -Ni 57 -Nx 600.00 -Ny 1480.00 -Nz 0.00 -Ne -1.000000 -Nl MAC -Nw COL -Ma 0 -Md 33000000 -Ms ffff0008 -Mt 0 -Is 51.42 -Id -1.42 -It message -Il 680 -If 0 -Ii 12 -Iv 32 
d -t 0.453372053 -Hs 50 -Hd -2 -Ni 50 -Nx 400.00 -Ny 1320.00 -Nz 0.00 -Ne -1.000000 -Nl MAC -Nw COL -Ma 0 -Md 33000000 -Ms ffff0008 -Mt 0 -Is 51.42 -Id -1.42 -It message -Il 680 -If 0 -Ii 12 -Iv 32 
d -t 0.453372053 -Hs 52 -Hd -2 -Ni 52 -Nx 800.00 -Ny 1320.00 -Nz 0.00 -Ne -1.000000 -Nl MAC -Nw COL -Ma 0 -Md 33000000 -Ms ffff0008 -Mt 0 -Is 51.42 -Id -1.42 -It message -Il 680 -If 0 -Ii 12 -Iv 32 
d -t 0.453372240 -Hs 58 -Hd -2 -Ni 58 -Nx 800.00 -Ny 1480.00 -Nz 0.00 -Ne -1.000000 -Nl MAC -Nw COL -Ma 0 -Md 33000000 -Ms ffff0008 -Mt 0 -Is 51.42 -Id -1.42 -It message -Il 680 -If 0 -Ii 12 -Iv 32 
d -t 0.453372720 -Hs 49 -Hd -2 -Ni 49 -Nx 200.00 -Ny 1320.00 -Nz 0.00 -Ne -1.000000 -Nl MAC -Nw COL -Ma 0 -Md 33000000 -Ms ffff0008 -Mt 0 -Is 51.42 -Id -1.42 -It message -Il 680 -If 0 -Ii 12 -Iv 32 
s -t 0.459139011 -Hs 55 -Hd -2 -Ni 55 -Nx 200.00 -Ny 1480.00 -Nz 0.00 -Ne -1.000000 -Nl MAC -Nw --- -Ma 0 -Md 37000000 -Ms ffff0008 -Mt 0 -Is 55.42 -Id -1.42 -It message -Il 700 -If 0 -Ii 13 -Iv 32 
r -t 0.464739544 -Hs 49 -Hd -2 -Ni 49 -Nx 200.00 -Ny 1320.00 -Nz 0.00 -Ne -1.000000 -Nl MAC -Nw --- -Ma 0 -Md 37000000 -Ms ffff0008 -Mt 0 -Is 55.42 -Id -1.42 -It message -Il 700 -If 0 -Ii 13 -Iv 32 
r -t 0.464739677 -Hs 54 -Hd -2 -Ni 54 -Nx 0.00 -Ny 1480.00 -Nz 0.00 -Ne -1.000000 -Nl MAC -Nw --- -Ma 0 -Md 37000000 -Ms ffff0008 -Mt 0 -Is 55.42 -Id -1.42 -It message -Il 700 -If 0 -Ii 13 -Iv 32 
r -t 0.464739677 -Hs 56 -Hd -2 -Ni 56 -Nx 400.00 -Ny 1480.00 -Nz 0.00 -Ne -1.000000 -Nl MAC -Nw --- -Ma 0 -Md 37000000 -Ms ffff0008 -Mt 0 -Is 55.42 -Id -1.42 -It message -Il 700 -If 0 -Ii 13 -Iv 32 
r -t 0.464764544 -Hs 49 -Hd -2 -Ni 49 -Nx 200.00 -Ny 1320.00 -Nz 0.00 -Ne -1.000000 -Nl AGT -Nw --- -Ma 0 -Md 37000000 -Ms ffff0008 -Mt 0 -Is 55.42 -Id -1.42 -It message -Il 700 -If 0 -Ii 13 -Iv 31 
v 0.46476454396960981 eval {set sim_annotation {49 received RREP message 2 from 55}}
r -t 0.464764677 -Hs 54 -Hd -2 -Ni 54 -Nx 0.00 -Ny 1480.00 -Nz 0.00 -Ne -1.000000 -Nl AGT -Nw --- -Ma 0 -Md 37000000 -Ms ffff0008 -Mt 0 -Is 55.42 -Id -1.42 -It message -Il 700 -If 0 -Ii 13 -Iv 31 
v 0.46476467730294313 eval {set sim_annotation {54 received RREP message 2 from 55}}
r -t 0.464764677 -Hs 56 -Hd -2 -Ni 56 -Nx 400.00 -Ny 1480.00 -Nz 0.00 -Ne -1.000000 -Nl AGT -Nw --- -Ma 0 -Md 37000000 -Ms ffff0008 -Mt 0 -Is 55.42 -Id -1.42 -It message -Il 700 -If 0 -Ii 13 -Iv 31 
v 0.46476467730294313 eval {set sim_annotation {56 received RREP message 2 from 55}}
v 0.69999999999999996 eval {set sim_annotation {94 sending message using Packet_classification: 3}}
s -t 0.700000000 -Hs 94 -Hd -2 -Ni 94 -Nx 3080.00 -Ny 2470.00 -Nz 0.00 -Ne -1.000000 -Nl AGT -Nw --- -Ma 0 -Md 0 -Ms 0 -Mt 0 -Is 94.42 -Id -1.42 -It message -Il 200 -If 0 -Ii 14 -Iv 32 
s -t 0.711223252 -Hs 94 -Hd -2 -Ni 94 -Nx 3080.00 -Ny 2470.00 -Nz 0.00 -Ne -1.000000 -Nl MAC -Nw --- -Ma 0 -Md 5e000000 -Ms ffff0008 -Mt 0 -Is 94.42 -Id -1.42 -It message -Il 220 -If 0 -Ii 14 -Iv 32 
r -t 0.712983785 -Hs 88 -Hd -2 -Ni 88 -Nx 3080.00 -Ny 2310.00 -Nz 0.00 -Ne -1.000000 -Nl MAC -Nw --- -Ma 0 -Md 5e000000 -Ms ffff0008 -Mt 0 -Is 94.42 -Id -1.42 -It message -Il 220 -If 0 -Ii 14 -Iv 32 
r -t 0.712983919 -Hs 93 -Hd -2 -Ni 93 -Nx 2880.00 -Ny 2470.00 -Nz 0.00 -Ne -1.000000 -Nl MAC -Nw --- -Ma 0 -Md 5e000000 -Ms ffff0008 -Mt 0 -Is 94.42 -Id -1.42 -It message -Il 220 -If 0 -Ii 14 -Iv 32 
r -t 0.712983919 -Hs 95 -Hd -2 -Ni 95 -Nx 3280.00 -Ny 2470.00 -Nz 0.00 -Ne -1.000000 -Nl MAC -Nw --- -Ma 0 -Md 5e000000 -Ms ffff0008 -Mt 0 -Is 94.42 -Id -1.42 -It message -Il 220 -If 0 -Ii 14 -Iv 32 
r -t 0.713008785 -Hs 88 -Hd -2 -Ni 88 -Nx 3080.00 -Ny 2310.00 -Nz 0.00 -Ne -1.000000 -Nl AGT -Nw --- -Ma 0 -Md 5e000000 -Ms ffff0008 -Mt 0 -Is 94.42 -Id -1.42 -It message -Il 220 -If 0 -Ii 14 -Iv 31 
v 0.71300878536203449 eval {set sim_annotation {88 received RREQ {3:outbouund RREP} from 94}}
v 0.71300878536203449 eval {set sim_annotation {88 Data Source 94}}
v 0.71300878536203449 eval {set sim_annotation {88 sending RREP message 3}}
v 0.71300878536203449 eval {set sim_annotation {88  Message Header  3}}
s -t 0.713008785 -Hs 88 -Hd -2 -Ni 88 -Nx 3080.00 -Ny 2310.00 -Nz 0.00 -Ne -1.000000 -Nl AGT -Nw --- -Ma 0 -Md 0 -Ms 0 -Mt 0 -Is 88.42 -Id -1.42 -It message -Il 220 -If 0 -Ii 15 -Iv 32 
r -t 0.713008919 -Hs 93 -Hd -2 -Ni 93 -Nx 2880.00 -Ny 2470.00 -Nz 0.00 -Ne -1.000000 -Nl AGT -Nw --- -Ma 0 -Md 5e000000 -Ms ffff0008 -Mt 0 -Is 94.42 -Id -1.42 -It message -Il 220 -If 0 -Ii 14 -Iv 31 
v 0.71300891869536775 eval {set sim_annotation {93 received RREQ {3:outbouund RREP} from 94}}
v 0.71300891869536775 eval {set sim_annotation {93 Data Source 94}}
v 0.71300891869536775 eval {set sim_annotation {93 sending RREP message 3}}
v 0.71300891869536775 eval {set sim_annotation {93  Message Header  3}}
s -t 0.713008919 -Hs 93 -Hd -2 -Ni 93 -Nx 2880.00 -Ny 2470.00 -Nz 0.00 -Ne -1.000000 -Nl AGT -Nw --- -Ma 0 -Md 0 -Ms 0 -Mt 0 -Is 93.42 -Id -1.42 -It message -Il 220 -If 0 -Ii 16 -Iv 32 
r -t 0.713008919 -Hs 95 -Hd -2 -Ni 95 -Nx 3280.00 -Ny 2470.00 -Nz 0.00 -Ne -1.000000 -Nl AGT -Nw --- -Ma 0 -Md 5e000000 -Ms ffff0008 -Mt 0 -Is 94.42 -Id -1.42 -It message -Il 220 -If 0 -Ii 14 -Iv 31 
v 0.71300891869536775 eval {set sim_annotation {95 received RREQ {3:outbouund RREP} from 94}}
v 0.71300891869536775 eval {set sim_annotation {95 Data Source 94}}
v 0.71300891869536775 eval {set sim_annotation {95 sending RREP message 3}}
v 0.71300891869536775 eval {set sim_annotation {95  Message Header  3}}
s -t 0.713008919 -Hs 95 -Hd -2 -Ni 95 -Nx 3280.00 -Ny 2470.00 -Nz 0.00 -Ne -1.000000 -Nl AGT -Nw --- -Ma 0 -Md 0 -Ms 0 -Mt 0 -Is 95.42 -Id -1.42 -It message -Il 220 -If 0 -Ii 17 -Iv 32 
s -t 0.715946042 -Hs 88 -Hd -2 -Ni 88 -Nx 3080.00 -Ny 2310.00 -Nz 0.00 -Ne -1.000000 -Nl MAC -Nw --- -Ma 0 -Md 58000000 -Ms ffff0008 -Mt 0 -Is 88.42 -Id -1.42 -It message -Il 240 -If 0 -Ii 15 -Iv 32 
r -t 0.717866575 -Hs 94 -Hd -2 -Ni 94 -Nx 3080.00 -Ny 2470.00 -Nz 0.00 -Ne -1.000000 -Nl MAC -Nw --- -Ma 0 -Md 58000000 -Ms ffff0008 -Mt 0 -Is 88.42 -Id -1.42 -It message -Il 240 -If 0 -Ii 15 -Iv 32 
r -t 0.717866708 -Hs 87 -Hd -2 -Ni 87 -Nx 2880.00 -Ny 2310.00 -Nz 0.00 -Ne -1.000000 -Nl MAC -Nw --- -Ma 0 -Md 58000000 -Ms ffff0008 -Mt 0 -Is 88.42 -Id -1.42 -It message -Il 240 -If 0 -Ii 15 -Iv 32 
r -t 0.717866708 -Hs 89 -Hd -2 -Ni 89 -Nx 3280.00 -Ny 2310.00 -Nz 0.00 -Ne -1.000000 -Nl MAC -Nw --- -Ma 0 -Md 58000000 -Ms ffff0008 -Mt 0 -Is 88.42 -Id -1.42 -It message -Il 240 -If 0 -Ii 15 -Iv 32 
r -t 0.717891575 -Hs 94 -Hd -2 -Ni 94 -Nx 3080.00 -Ny 2470.00 -Nz 0.00 -Ne -1.000000 -Nl AGT -Nw --- -Ma 0 -Md 58000000 -Ms ffff0008 -Mt 0 -Is 88.42 -Id -1.42 -It message -Il 240 -If 0 -Ii 15 -Iv 31 
v 0.7178915749752699 eval {set sim_annotation {94 received RREP message 3 from 88}}
r -t 0.717891708 -Hs 87 -Hd -2 -Ni 87 -Nx 2880.00 -Ny 2310.00 -Nz 0.00 -Ne -1.000000 -Nl AGT -Nw --- -Ma 0 -Md 58000000 -Ms ffff0008 -Mt 0 -Is 88.42 -Id -1.42 -It message -Il 240 -If 0 -Ii 15 -Iv 31 
v 0.71789170830860316 eval {set sim_annotation {87 received RREQ {3:outbouund RREP} from 88}}
v 0.71789170830860316 eval {set sim_annotation {87 Data Source 88}}
v 0.71789170830860316 eval {set sim_annotation {87 sending RREP message 3}}
v 0.71789170830860316 eval {set sim_annotation {87  Message Header  3}}
s -t 0.717891708 -Hs 87 -Hd -2 -Ni 87 -Nx 2880.00 -Ny 2310.00 -Nz 0.00 -Ne -1.000000 -Nl AGT -Nw --- -Ma 0 -Md 0 -Ms 0 -Mt 0 -Is 87.42 -Id -1.42 -It message -Il 240 -If 0 -Ii 18 -Iv 32 
r -t 0.717891708 -Hs 89 -Hd -2 -Ni 89 -Nx 3280.00 -Ny 2310.00 -Nz 0.00 -Ne -1.000000 -Nl AGT -Nw --- -Ma 0 -Md 58000000 -Ms ffff0008 -Mt 0 -Is 88.42 -Id -1.42 -It message -Il 240 -If 0 -Ii 15 -Iv 31 
v 0.71789170830860316 eval {set sim_annotation {89 received RREQ {3:outbouund RREP} from 88}}
v 0.71789170830860316 eval {set sim_annotation {89 Data Source 88}}
v 0.71789170830860316 eval {set sim_annotation {89 sending RREP message 3}}
v 0.71789170830860316 eval {set sim_annotation {89  Message Header  3}}
s -t 0.717891708 -Hs 89 -Hd -2 -Ni 89 -Nx 3280.00 -Ny 2310.00 -Nz 0.00 -Ne -1.000000 -Nl AGT -Nw --- -Ma 0 -Md 0 -Ms 0 -Mt 0 -Is 89.42 -Id -1.42 -It message -Il 240 -If 0 -Ii 19 -Iv 32 
s -t 0.721007408 -Hs 95 -Hd -2 -Ni 95 -Nx 3280.00 -Ny 2470.00 -Nz 0.00 -Ne -1.000000 -Nl MAC -Nw --- -Ma 0 -Md 5f000000 -Ms ffff0008 -Mt 0 -Is 95.42 -Id -1.42 -It message -Il 240 -If 0 -Ii 17 -Iv 32 
r -t 0.722927941 -Hs 89 -Hd -2 -Ni 89 -Nx 3280.00 -Ny 2310.00 -Nz 0.00 -Ne -1.000000 -Nl MAC -Nw --- -Ma 0 -Md 5f000000 -Ms ffff0008 -Mt 0 -Is 95.42 -Id -1.42 -It message -Il 240 -If 0 -Ii 17 -Iv 32 
r -t 0.722928075 -Hs 94 -Hd -2 -Ni 94 -Nx 3080.00 -Ny 2470.00 -Nz 0.00 -Ne -1.000000 -Nl MAC -Nw --- -Ma 0 -Md 5f000000 -Ms ffff0008 -Mt 0 -Is 95.42 -Id -1.42 -It message -Il 240 -If 0 -Ii 17 -Iv 32 
r -t 0.722952941 -Hs 89 -Hd -2 -Ni 89 -Nx 3280.00 -Ny 2310.00 -Nz 0.00 -Ne -1.000000 -Nl AGT -Nw --- -Ma 0 -Md 5f000000 -Ms ffff0008 -Mt 0 -Is 95.42 -Id -1.42 -It message -Il 240 -If 0 -Ii 17 -Iv 31 
v 0.72295294146038558 eval {set sim_annotation {89 received RREP message 3 from 95}}
r -t 0.722953075 -Hs 94 -Hd -2 -Ni 94 -Nx 3080.00 -Ny 2470.00 -Nz 0.00 -Ne -1.000000 -Nl AGT -Nw --- -Ma 0 -Md 5f000000 -Ms ffff0008 -Mt 0 -Is 95.42 -Id -1.42 -It message -Il 240 -If 0 -Ii 17 -Iv 31 
v 0.72295307479371884 eval {set sim_annotation {94 received RREP message 3 from 95}}
s -t 0.723244984 -Hs 93 -Hd -2 -Ni 93 -Nx 2880.00 -Ny 2470.00 -Nz 0.00 -Ne -1.000000 -Nl MAC -Nw --- -Ma 0 -Md 5d000000 -Ms ffff0008 -Mt 0 -Is 93.42 -Id -1.42 -It message -Il 240 -If 0 -Ii 16 -Iv 32 
r -t 0.725165518 -Hs 87 -Hd -2 -Ni 87 -Nx 2880.00 -Ny 2310.00 -Nz 0.00 -Ne -1.000000 -Nl MAC -Nw --- -Ma 0 -Md 5d000000 -Ms ffff0008 -Mt 0 -Is 93.42 -Id -1.42 -It message -Il 240 -If 0 -Ii 16 -Iv 32 
r -t 0.725165651 -Hs 92 -Hd -2 -Ni 92 -Nx 2680.00 -Ny 2470.00 -Nz 0.00 -Ne -1.000000 -Nl MAC -Nw --- -Ma 0 -Md 5d000000 -Ms ffff0008 -Mt 0 -Is 93.42 -Id -1.42 -It message -Il 240 -If 0 -Ii 16 -Iv 32 
r -t 0.725165651 -Hs 94 -Hd -2 -Ni 94 -Nx 3080.00 -Ny 2470.00 -Nz 0.00 -Ne -1.000000 -Nl MAC -Nw --- -Ma 0 -Md 5d000000 -Ms ffff0008 -Mt 0 -Is 93.42 -Id -1.42 -It message -Il 240 -If 0 -Ii 16 -Iv 32 
s -t 0.725171899 -Hs 89 -Hd -2 -Ni 89 -Nx 3280.00 -Ny 2310.00 -Nz 0.00 -Ne -1.000000 -Nl MAC -Nw --- -Ma 0 -Md 59000000 -Ms ffff0008 -Mt 0 -Is 89.42 -Id -1.42 -It message -Il 260 -If 0 -Ii 19 -Iv 32 
r -t 0.725190518 -Hs 87 -Hd -2 -Ni 87 -Nx 2880.00 -Ny 2310.00 -Nz 0.00 -Ne -1.000000 -Nl AGT -Nw --- -Ma 0 -Md 5d000000 -Ms ffff0008 -Mt 0 -Is 93.42 -Id -1.42 -It message -Il 240 -If 0 -Ii 16 -Iv 31 
v 0.72519051754818642 eval {set sim_annotation {87 received RREP message 3 from 93}}
r -t 0.725190651 -Hs 92 -Hd -2 -Ni 92 -Nx 2680.00 -Ny 2470.00 -Nz 0.00 -Ne -1.000000 -Nl AGT -Nw --- -Ma 0 -Md 5d000000 -Ms ffff0008 -Mt 0 -Is 93.42 -Id -1.42 -It message -Il 240 -If 0 -Ii 16 -Iv 31 
v 0.72519065088151968 eval {set sim_annotation {92 received RREQ {3:outbouund RREP} from 93}}
v 0.72519065088151968 eval {set sim_annotation {92 Data Source 93}}
v 0.72519065088151968 eval {set sim_annotation {92 sending RREP message 3}}
v 0.72519065088151968 eval {set sim_annotation {92  Message Header  3}}
s -t 0.725190651 -Hs 92 -Hd -2 -Ni 92 -Nx 2680.00 -Ny 2470.00 -Nz 0.00 -Ne -1.000000 -Nl AGT -Nw --- -Ma 0 -Md 0 -Ms 0 -Mt 0 -Is 92.42 -Id -1.42 -It message -Il 240 -If 0 -Ii 20 -Iv 32 