M 0.00000 42 (97.00, 403.00, 0.00), (358.00, 221.00), 100.00
s 0.000000000 _42_ AGT  --- 0 cbr 100 [0 0 0 0] ------- [42:0 2:0 32 0] [0] 0 0
r 0.000000000 _42_ RTR  --- 0 cbr 100 [0 0 0 0] ------- [42:0 2:0 32 0] [0] 0 0
v 0 eval {set sim_annotation { Mobile access the signal from BS2}}
v 0 eval {set sim_annotation { Hand over probability of BS2 0.33333333333333331}}
s 0.000000000 _42_ RTR  --- 0 AODV 48 [0 0 0 0] ------- [42:255 -1:255 30 0] [0x2 1 1 [2 0] [42 4]] (REQUEST)
s 0.000535000 _42_ MAC  --- 0 AODV 100 [0 ffffffff 2a 800] ------- [42:255 -1:255 30 0] [0x2 1 1 [2 0] [42 4]] (REQUEST)
r 0.001335471 _2_ MAC  --- 0 AODV 48 [0 ffffffff 2a 800] ------- [42:255 -1:255 30 0] [0x2 1 1 [2 0] [42 4]] (REQUEST)
r 0.001335474 _1_ MAC  --- 0 AODV 48 [0 ffffffff 2a 800] ------- [42:255 -1:255 30 0] [0x2 1 1 [2 0] [42 4]] (REQUEST)
r 0.001335660 _17_ MAC  --- 0 AODV 48 [0 ffffffff 2a 800] ------- [42:255 -1:255 30 0] [0x2 1 1 [2 0] [42 4]] (REQUEST)
r 0.001335673 _0_ MAC  --- 0 AODV 48 [0 ffffffff 2a 800] ------- [42:255 -1:255 30 0] [0x2 1 1 [2 0] [42 4]] (REQUEST)
r 0.001360471 _2_ RTR  --- 0 AODV 48 [0 ffffffff 2a 800] ------- [42:255 -1:255 30 0] [0x2 1 1 [2 0] [42 4]] (REQUEST)
s 0.001360471 _2_ RTR  --- 0 AODV 44 [0 0 0 0] ------- [2:255 42:255 30 42] [0x4 1 [2 4] 10.000000] (REPLY)
r 0.001360474 _1_ RTR  --- 0 AODV 48 [0 ffffffff 2a 800] ------- [42:255 -1:255 30 0] [0x2 1 1 [2 0] [42 4]] (REQUEST)
r 0.001360660 _17_ RTR  --- 0 AODV 48 [0 ffffffff 2a 800] ------- [42:255 -1:255 30 0] [0x2 1 1 [2 0] [42 4]] (REQUEST)
r 0.001360673 _0_ RTR  --- 0 AODV 48 [0 ffffffff 2a 800] ------- [42:255 -1:255 30 0] [0x2 1 1 [2 0] [42 4]] (REQUEST)
s 0.001415471 _2_ MAC  --- 0 ARP 80 [0 ffffffff 2 806] ------- [REQUEST 2/2 0/42]
s 0.001502520 _1_ RTR  --- 0 AODV 48 [0 ffffffff 2a 800] ------- [1:255 -1:255 29 0] [0x2 2 1 [2 0] [42 4]] (REQUEST)
r 0.002055938 _0_ MAC  --- 0 ARP 28 [0 ffffffff 2 806] ------- [REQUEST 2/2 0/42]
r 0.002055942 _42_ MAC  --- 0 ARP 28 [0 ffffffff 2 806] ------- [REQUEST 2/2 0/42]
r 0.002055943 _6_ MAC  --- 0 ARP 28 [0 ffffffff 2 806] ------- [REQUEST 2/2 0/42]
r 0.002056125 _1_ MAC  --- 0 ARP 28 [0 ffffffff 2 806] ------- [REQUEST 2/2 0/42]
r 0.002056142 _5_ MAC  --- 0 ARP 28 [0 ffffffff 2 806] ------- [REQUEST 2/2 0/42]
s 0.002125942 _42_ MAC  --- 0 RTS 44 [4fe 2 2a 0] 
s 0.002241887 _17_ RTR  --- 0 AODV 48 [0 ffffffff 2a 800] ------- [17:255 -1:255 29 0] [0x2 2 1 [2 0] [42 4]] (REQUEST)
r 0.002478413 _2_ MAC  --- 0 RTS 44 [4fe 2 2a 0] 
s 0.002488413 _2_ MAC  --- 0 CTS 38 [3c4 2a 0 0] 
r 0.002792884 _42_ MAC  --- 0 CTS 38 [3c4 2a 0 0] 
s 0.002802884 _42_ MAC  --- 0 ARP 80 [13a 2 2a 806] ------- [REPLY 42/42 2/2]
r 0.003443354 _2_ MAC  --- 0 ARP 28 [13a 2 2a 806] ------- [REPLY 42/42 2/2]
s 0.003453354 _2_ MAC  --- 0 ACK 38 [0 2a 0 0] 
r 0.003757825 _42_ MAC  --- 0 ACK 38 [0 2a 0 0] 
s 0.003948008 _1_ MAC  --- 0 AODV 100 [0 ffffffff 1 800] ------- [1:255 -1:255 29 0] [0x2 2 1 [2 0] [42 4]] (REQUEST)
r 0.004748472 _0_ MAC  --- 0 AODV 48 [0 ffffffff 1 800] ------- [1:255 -1:255 29 0] [0x2 2 1 [2 0] [42 4]] (REQUEST)
r 0.004748477 _3_ MAC  --- 0 AODV 48 [0 ffffffff 1 800] ------- [1:255 -1:255 29 0] [0x2 2 1 [2 0] [42 4]] (REQUEST)
r 0.004748481 _42_ MAC  --- 0 AODV 48 [0 ffffffff 1 800] ------- [1:255 -1:255 29 0] [0x2 2 1 [2 0] [42 4]] (REQUEST)
r 0.004748482 _17_ MAC  --- 0 AODV 48 [0 ffffffff 1 800] ------- [1:255 -1:255 29 0] [0x2 2 1 [2 0] [42 4]] (REQUEST)
r 0.004748661 _25_ MAC  --- 0 AODV 48 [0 ffffffff 1 800] ------- [1:255 -1:255 29 0] [0x2 2 1 [2 0] [42 4]] (REQUEST)
r 0.004748661 _2_ MAC  --- 0 AODV 48 [0 ffffffff 1 800] ------- [1:255 -1:255 29 0] [0x2 2 1 [2 0] [42 4]] (REQUEST)
r 0.004748671 _4_ MAC  --- 0 AODV 48 [0 ffffffff 1 800] ------- [1:255 -1:255 29 0] [0x2 2 1 [2 0] [42 4]] (REQUEST)
r 0.004773472 _0_ RTR  --- 0 AODV 48 [0 ffffffff 1 800] ------- [1:255 -1:255 29 0] [0x2 2 1 [2 0] [42 4]] (REQUEST)
r 0.004773477 _3_ RTR  --- 0 AODV 48 [0 ffffffff 1 800] ------- [1:255 -1:255 29 0] [0x2 2 1 [2 0] [42 4]] (REQUEST)
r 0.004773481 _42_ RTR  --- 0 AODV 48 [0 ffffffff 1 800] ------- [1:255 -1:255 29 0] [0x2 2 1 [2 0] [42 4]] (REQUEST)
r 0.004773482 _17_ RTR  --- 0 AODV 48 [0 ffffffff 1 800] ------- [1:255 -1:255 29 0] [0x2 2 1 [2 0] [42 4]] (REQUEST)
r 0.004773661 _25_ RTR  --- 0 AODV 48 [0 ffffffff 1 800] ------- [1:255 -1:255 29 0] [0x2 2 1 [2 0] [42 4]] (REQUEST)
r 0.004773661 _2_ RTR  --- 0 AODV 48 [0 ffffffff 1 800] ------- [1:255 -1:255 29 0] [0x2 2 1 [2 0] [42 4]] (REQUEST)
r 0.004773671 _4_ RTR  --- 0 AODV 48 [0 ffffffff 1 800] ------- [1:255 -1:255 29 0] [0x2 2 1 [2 0] [42 4]] (REQUEST)
s 0.004838661 _2_ MAC  --- 0 RTS 44 [57e 2a 2 0] 
r 0.005191131 _42_ MAC  --- 0 RTS 44 [57e 2a 2 0] 
s 0.005201131 _42_ MAC  --- 0 CTS 38 [444 2 0 0] 
s 0.005201617 _4_ RTR  --- 0 AODV 48 [0 ffffffff 1 800] ------- [4:255 -1:255 28 0] [0x2 3 1 [2 0] [42 4]] (REQUEST)
r 0.005505601 _2_ MAC  --- 0 CTS 38 [444 2 0 0] 
s 0.005515601 _2_ MAC  --- 0 AODV 96 [13a 2a 2 800] ------- [2:255 42:255 30 42] [0x4 1 [2 4] 10.000000] (REPLY)
s 0.005772407 _0_ RTR  --- 0 AODV 48 [0 ffffffff 2a 800] ------- [0:255 -1:255 29 0] [0x2 2 1 [2 0] [42 4]] (REQUEST)
r 0.006284070 _42_ MAC  --- 0 AODV 44 [13a 2a 2 800] ------- [2:255 42:255 30 42] [0x4 1 [2 4] 10.000000] (REPLY)
s 0.006294070 _42_ MAC  --- 0 ACK 38 [0 2 0 0] 
r 0.006309070 _42_ RTR  --- 0 AODV 44 [13a 2a 2 800] ------- [2:255 42:255 30 42] [0x4 1 [2 4] 10.000000] (REPLY)
s 0.006309070 _42_ RTR  --- 0 cbr 120 [0 0 0 0] ------- [42:0 2:0 30 2] [0] 0 0
s 0.006415115 _25_ RTR  --- 0 AODV 48 [0 ffffffff 1 800] ------- [25:255 -1:255 28 0] [0x2 3 1 [2 0] [42 4]] (REQUEST)
r 0.006598540 _2_ MAC  --- 0 ACK 38 [0 2 0 0] 
s 0.006828070 _42_ MAC  --- 0 RTS 44 [7de 2 2a 0] 
r 0.007180540 _2_ MAC  --- 0 RTS 44 [7de 2 2a 0] 
s 0.007190540 _2_ MAC  --- 0 CTS 38 [6a4 2a 0 0] 
r 0.007495009 _42_ MAC  --- 0 CTS 38 [6a4 2a 0 0] 
s 0.007505009 _42_ MAC  --- 0 cbr 172 [13a 2 2a 800] ------- [42:0 2:0 30 2] [0] 0 0
s 0.008000000 _42_ AGT  --- 1 cbr 100 [0 0 0 0] ------- [42:0 2:0 32 0] [1] 0 0
r 0.008000000 _42_ RTR  --- 1 cbr 100 [0 0 0 0] ------- [42:0 2:0 32 0] [1] 0 0
s 0.008000000 _42_ RTR  --- 1 cbr 120 [0 0 0 0] ------- [42:0 2:0 30 2] [1] 0 0
r 0.008881478 _2_ MAC  --- 0 cbr 120 [13a 2 2a 800] ------- [42:0 2:0 30 2] [0] 1 0
s 0.008891478 _2_ MAC  --- 0 ACK 38 [0 2a 0 0] 
r 0.008906478 _2_ AGT  --- 0 cbr 120 [13a 2 2a 800] ------- [42:0 2:0 30 2] [0] 1 0
r 0.009195946 _42_ MAC  --- 0 ACK 38 [0 2a 0 0] 
s 0.009445945 _0_ MAC  --- 0 AODV 100 [0 ffffffff 0 800] ------- [0:255 -1:255 29 0] [0x2 2 1 [2 0] [42 4]] (REQUEST)
r 0.010246409 _1_ MAC  --- 0 AODV 48 [0 ffffffff 0 800] ------- [0:255 -1:255 29 0] [0x2 2 1 [2 0] [42 4]] (REQUEST)
r 0.010246411 _2_ MAC  --- 0 AODV 48 [0 ffffffff 0 800] ------- [0:255 -1:255 29 0] [0x2 2 1 [2 0] [42 4]] (REQUEST)
r 0.010246416 _4_ MAC  --- 0 AODV 48 [0 ffffffff 0 800] ------- [0:255 -1:255 29 0] [0x2 2 1 [2 0] [42 4]] (REQUEST)
r 0.010246425 _5_ MAC  --- 0 AODV 48 [0 ffffffff 0 800] ------- [0:255 -1:255 29 0] [0x2 2 1 [2 0] [42 4]] (REQUEST)
r 0.010246608 _15_ MAC  --- 0 AODV 48 [0 ffffffff 0 800] ------- [0:255 -1:255 29 0] [0x2 2 1 [2 0] [42 4]] (REQUEST)
r 0.010246611 _6_ MAC  --- 0 AODV 48 [0 ffffffff 0 800] ------- [0:255 -1:255 29 0] [0x2 2 1 [2 0] [42 4]] (REQUEST)
r 0.010246611 _3_ MAC  --- 0 AODV 48 [0 ffffffff 0 800] ------- [0:255 -1:255 29 0] [0x2 2 1 [2 0] [42 4]] (REQUEST)
r 0.010246615 _42_ MAC  --- 0 AODV 48 [0 ffffffff 0 800] ------- [0:255 -1:255 29 0] [0x2 2 1 [2 0] [42 4]] (REQUEST)
r 0.010271409 _1_ RTR  --- 0 AODV 48 [0 ffffffff 0 800] ------- [0:255 -1:255 29 0] [0x2 2 1 [2 0] [42 4]] (REQUEST)
r 0.010271411 _2_ RTR  --- 0 AODV 48 [0 ffffffff 0 800] ------- [0:255 -1:255 29 0] [0x2 2 1 [2 0] [42 4]] (REQUEST)
r 0.010271416 _4_ RTR  --- 0 AODV 48 [0 ffffffff 0 800] ------- [0:255 -1:255 29 0] [0x2 2 1 [2 0] [42 4]] (REQUEST)
r 0.010271425 _5_ RTR  --- 0 AODV 48 [0 ffffffff 0 800] ------- [0:255 -1:255 29 0] [0x2 2 1 [2 0] [42 4]] (REQUEST)
r 0.010271608 _15_ RTR  --- 0 AODV 48 [0 ffffffff 0 800] ------- [0:255 -1:255 29 0] [0x2 2 1 [2 0] [42 4]] (REQUEST)
r 0.010271611 _6_ RTR  --- 0 AODV 48 [0 ffffffff 0 800] ------- [0:255 -1:255 29 0] [0x2 2 1 [2 0] [42 4]] (REQUEST)
r 0.010271611 _3_ RTR  --- 0 AODV 48 [0 ffffffff 0 800] ------- [0:255 -1:255 29 0] [0x2 2 1 [2 0] [42 4]] (REQUEST)
r 0.010271615 _42_ RTR  --- 0 AODV 48 [0 ffffffff 0 800] ------- [0:255 -1:255 29 0] [0x2 2 1 [2 0] [42 4]] (REQUEST)
s 0.010336615 _42_ MAC  --- 0 RTS 44 [7de 2 2a 0] 
r 0.010689083 _2_ MAC  --- 0 RTS 44 [7de 2 2a 0] 
s 0.010699083 _2_ MAC  --- 0 CTS 38 [6a4 2a 0 0] 
r 0.011003551 _42_ MAC  --- 0 CTS 38 [6a4 2a 0 0] 
s 0.011013551 _42_ MAC  --- 1 cbr 172 [13a 2 2a 800] ------- [42:0 2:0 30 2] [1] 0 0
r 0.012390019 _2_ MAC  --- 1 cbr 120 [13a 2 2a 800] ------- [42:0 2:0 30 2] [1] 1 0
s 0.012400019 _2_ MAC  --- 0 ACK 38 [0 2a 0 0] 
r 0.012415019 _2_ AGT  --- 1 cbr 120 [13a 2 2a 800] ------- [42:0 2:0 30 2] [1] 1 0
r 0.012704487 _42_ MAC  --- 0 ACK 38 [0 2a 0 0] 
s 0.013136712 _3_ RTR  --- 0 AODV 48 [0 ffffffff 1 800] ------- [3:255 -1:255 28 0] [0x2 3 1 [2 0] [42 4]] (REQUEST)
s 0.013199061 _17_ MAC  --- 0 AODV 100 [0 ffffffff 11 800] ------- [17:255 -1:255 29 0] [0x2 2 1 [2 0] [42 4]] (REQUEST)
r 0.013999523 _25_ MAC  --- 0 AODV 48 [0 ffffffff 11 800] ------- [17:255 -1:255 29 0] [0x2 2 1 [2 0] [42 4]] (REQUEST)
r 0.013999535 _1_ MAC  --- 0 AODV 48 [0 ffffffff 11 800] ------- [17:255 -1:255 29 0] [0x2 2 1 [2 0] [42 4]] (REQUEST)
r 0.013999721 _3_ MAC  --- 0 AODV 48 [0 ffffffff 11 800] ------- [17:255 -1:255 29 0] [0x2 2 1 [2 0] [42 4]] (REQUEST)
r 0.013999723 _42_ MAC  --- 0 AODV 48 [0 ffffffff 11 800] ------- [17:255 -1:255 29 0] [0x2 2 1 [2 0] [42 4]] (REQUEST)
r 0.013999734 _23_ MAC  --- 0 AODV 48 [0 ffffffff 11 800] ------- [17:255 -1:255 29 0] [0x2 2 1 [2 0] [42 4]] (REQUEST)
r 0.014024523 _25_ RTR  --- 0 AODV 48 [0 ffffffff 11 800] ------- [17:255 -1:255 29 0] [0x2 2 1 [2 0] [42 4]] (REQUEST)
r 0.014024535 _1_ RTR  --- 0 AODV 48 [0 ffffffff 11 800] ------- [17:255 -1:255 29 0] [0x2 2 1 [2 0] [42 4]] (REQUEST)
r 0.014024721 _3_ RTR  --- 0 AODV 48 [0 ffffffff 11 800] ------- [17:255 -1:255 29 0] [0x2 2 1 [2 0] [42 4]] (REQUEST)
r 0.014024723 _42_ RTR  --- 0 AODV 48 [0 ffffffff 11 800] ------- [17:255 -1:255 29 0] [0x2 2 1 [2 0] [42 4]] (REQUEST)
r 0.014024734 _23_ RTR  --- 0 AODV 48 [0 ffffffff 11 800] ------- [17:255 -1:255 29 0] [0x2 2 1 [2 0] [42 4]] (REQUEST)
s 0.014209523 _25_ MAC  --- 0 AODV 100 [0 ffffffff 19 800] ------- [25:255 -1:255 28 0] [0x2 3 1 [2 0] [42 4]] (REQUEST)
r 0.015009975 _3_ MAC  --- 0 AODV 48 [0 ffffffff 19 800] ------- [25:255 -1:255 28 0] [0x2 3 1 [2 0] [42 4]] (REQUEST)
r 0.015009985 _17_ MAC  --- 0 AODV 48 [0 ffffffff 19 800] ------- [25:255 -1:255 28 0] [0x2 3 1 [2 0] [42 4]] (REQUEST)
r 0.015010001 _22_ MAC  --- 0 AODV 48 [0 ffffffff 19 800] ------- [25:255 -1:255 28 0] [0x2 3 1 [2 0] [42 4]] (REQUEST)
r 0.015010015 _23_ MAC  --- 0 AODV 48 [0 ffffffff 19 800] ------- [25:255 -1:255 28 0] [0x2 3 1 [2 0] [42 4]] (REQUEST)
r 0.015010176 _1_ MAC  --- 0 AODV 48 [0 ffffffff 19 800] ------- [25:255 -1:255 28 0] [0x2 3 1 [2 0] [42 4]] (REQUEST)
r 0.015010193 _24_ MAC  --- 0 AODV 48 [0 ffffffff 19 800] ------- [25:255 -1:255 28 0] [0x2 3 1 [2 0] [42 4]] (REQUEST)
r 0.015010199 _26_ MAC  --- 0 AODV 48 [0 ffffffff 19 800] ------- [25:255 -1:255 28 0] [0x2 3 1 [2 0] [42 4]] (REQUEST)
r 0.015034975 _3_ RTR  --- 0 AODV 48 [0 ffffffff 19 800] ------- [25:255 -1:255 28 0] [0x2 3 1 [2 0] [42 4]] (REQUEST)
r 0.015034985 _17_ RTR  --- 0 AODV 48 [0 ffffffff 19 800] ------- [25:255 -1:255 28 0] [0x2 3 1 [2 0] [42 4]] (REQUEST)
r 0.015035001 _22_ RTR  --- 0 AODV 48 [0 ffffffff 19 800] ------- [25:255 -1:255 28 0] [0x2 3 1 [2 0] [42 4]] (REQUEST)
r 0.015035015 _23_ RTR  --- 0 AODV 48 [0 ffffffff 19 800] ------- [25:255 -1:255 28 0] [0x2 3 1 [2 0] [42 4]] (REQUEST)
r 0.015035176 _1_ RTR  --- 0 AODV 48 [0 ffffffff 19 800] ------- [25:255 -1:255 28 0] [0x2 3 1 [2 0] [42 4]] (REQUEST)
r 0.015035193 _24_ RTR  --- 0 AODV 48 [0 ffffffff 19 800] ------- [25:255 -1:255 28 0] [0x2 3 1 [2 0] [42 4]] (REQUEST)
r 0.015035199 _26_ RTR  --- 0 AODV 48 [0 ffffffff 19 800] ------- [25:255 -1:255 28 0] [0x2 3 1 [2 0] [42 4]] (REQUEST)
s 0.015179975 _3_ MAC  --- 0 AODV 100 [0 ffffffff 3 800] ------- [3:255 -1:255 28 0] [0x2 3 1 [2 0] [42 4]] (REQUEST)
s 0.015898387 _23_ RTR  --- 0 AODV 48 [0 ffffffff 11 800] ------- [23:255 -1:255 28 0] [0x2 3 1 [2 0] [42 4]] (REQUEST)
r 0.015980428 _25_ MAC  --- 0 AODV 48 [0 ffffffff 3 800] ------- [3:255 -1:255 28 0] [0x2 3 1 [2 0] [42 4]] (REQUEST)
r 0.015980445 _1_ MAC  --- 0 AODV 48 [0 ffffffff 3 800] ------- [3:255 -1:255 28 0] [0x2 3 1 [2 0] [42 4]] (REQUEST)
r 0.015980447 _26_ MAC  --- 0 AODV 48 [0 ffffffff 3 800] ------- [3:255 -1:255 28 0] [0x2 3 1 [2 0] [42 4]] (REQUEST)
r 0.015980452 _4_ MAC  --- 0 AODV 48 [0 ffffffff 3 800] ------- [3:255 -1:255 28 0] [0x2 3 1 [2 0] [42 4]] (REQUEST)
r 0.015980632 _22_ MAC  --- 0 AODV 48 [0 ffffffff 3 800] ------- [3:255 -1:255 28 0] [0x2 3 1 [2 0] [42 4]] (REQUEST)
r 0.015980635 _17_ MAC  --- 0 AODV 48 [0 ffffffff 3 800] ------- [3:255 -1:255 28 0] [0x2 3 1 [2 0] [42 4]] (REQUEST)
r 0.015980642 _0_ MAC  --- 0 AODV 48 [0 ffffffff 3 800] ------- [3:255 -1:255 28 0] [0x2 3 1 [2 0] [42 4]] (REQUEST)
r 0.015980652 _8_ MAC  --- 0 AODV 48 [0 ffffffff 3 800] ------- [3:255 -1:255 28 0] [0x2 3 1 [2 0] [42 4]] (REQUEST)
s 0.016000000 _42_ AGT  --- 2 cbr 100 [0 0 0 0] ------- [42:0 2:0 32 0] [2] 0 0
r 0.016000000 _42_ RTR  --- 2 cbr 100 [0 0 0 0] ------- [42:0 2:0 32 0] [2] 0 0
s 0.016000000 _42_ RTR  --- 2 cbr 120 [0 0 0 0] ------- [42:0 2:0 30 2] [2] 0 0
r 0.016005428 _25_ RTR  --- 0 AODV 48 [0 ffffffff 3 800] ------- [3:255 -1:255 28 0] [0x2 3 1 [2 0] [42 4]] (REQUEST)
r 0.016005445 _1_ RTR  --- 0 AODV 48 [0 ffffffff 3 800] ------- [3:255 -1:255 28 0] [0x2 3 1 [2 0] [42 4]] (REQUEST)
r 0.016005447 _26_ RTR  --- 0 AODV 48 [0 ffffffff 3 800] ------- [3:255 -1:255 28 0] [0x2 3 1 [2 0] [42 4]] (REQUEST)
r 0.016005452 _4_ RTR  --- 0 AODV 48 [0 ffffffff 3 800] ------- [3:255 -1:255 28 0] [0x2 3 1 [2 0] [42 4]] (REQUEST)
r 0.016005632 _22_ RTR  --- 0 AODV 48 [0 ffffffff 3 800] ------- [3:255 -1:255 28 0] [0x2 3 1 [2 0] [42 4]] (REQUEST)
r 0.016005635 _17_ RTR  --- 0 AODV 48 [0 ffffffff 3 800] ------- [3:255 -1:255 28 0] [0x2 3 1 [2 0] [42 4]] (REQUEST)
r 0.016005642 _0_ RTR  --- 0 AODV 48 [0 ffffffff 3 800] ------- [3:255 -1:255 28 0] [0x2 3 1 [2 0] [42 4]] (REQUEST)
r 0.016005652 _8_ RTR  --- 0 AODV 48 [0 ffffffff 3 800] ------- [3:255 -1:255 28 0] [0x2 3 1 [2 0] [42 4]] (REQUEST)
s 0.016070452 _4_ MAC  --- 0 AODV 100 [0 ffffffff 4 800] ------- [4:255 -1:255 28 0] [0x2 3 1 [2 0] [42 4]] (REQUEST)
s 0.016155513 _26_ RTR  --- 0 AODV 48 [0 ffffffff 19 800] ------- [26:255 -1:255 27 0] [0x2 4 1 [2 0] [42 4]] (REQUEST)
r 0.016870921 _15_ MAC  --- 0 AODV 48 [0 ffffffff 4 800] ------- [4:255 -1:255 28 0] [0x2 3 1 [2 0] [42 4]] (REQUEST)
r 0.016870921 _8_ MAC  --- 0 AODV 48 [0 ffffffff 4 800] ------- [4:255 -1:255 28 0] [0x2 3 1 [2 0] [42 4]] (REQUEST)
r 0.016870923 _0_ MAC  --- 0 AODV 48 [0 ffffffff 4 800] ------- [4:255 -1:255 28 0] [0x2 3 1 [2 0] [42 4]] (REQUEST)
r 0.016870928 _3_ MAC  --- 0 AODV 48 [0 ffffffff 4 800] ------- [4:255 -1:255 28 0] [0x2 3 1 [2 0] [42 4]] (REQUEST)
r 0.016871102 _26_ MAC  --- 0 AODV 48 [0 ffffffff 4 800] ------- [4:255 -1:255 28 0] [0x2 3 1 [2 0] [42 4]] (REQUEST)
r 0.016871115 _1_ MAC  --- 0 AODV 48 [0 ffffffff 4 800] ------- [4:255 -1:255 28 0] [0x2 3 1 [2 0] [42 4]] (REQUEST)
r 0.016871122 _9_ MAC  --- 0 AODV 48 [0 ffffffff 4 800] ------- [4:255 -1:255 28 0] [0x2 3 1 [2 0] [42 4]] (REQUEST)
r 0.016871128 _5_ MAC  --- 0 AODV 48 [0 ffffffff 4 800] ------- [4:255 -1:255 28 0] [0x2 3 1 [2 0] [42 4]] (REQUEST)
r 0.016895921 _15_ RTR  --- 0 AODV 48 [0 ffffffff 4 800] ------- [4:255 -1:255 28 0] [0x2 3 1 [2 0] [42 4]] (REQUEST)
r 0.016895921 _8_ RTR  --- 0 AODV 48 [0 ffffffff 4 800] ------- [4:255 -1:255 28 0] [0x2 3 1 [2 0] [42 4]] (REQUEST)
r 0.016895923 _0_ RTR  --- 0 AODV 48 [0 ffffffff 4 800] ------- [4:255 -1:255 28 0] [0x2 3 1 [2 0] [42 4]] (REQUEST)
r 0.016895928 _3_ RTR  --- 0 AODV 48 [0 ffffffff 4 800] ------- [4:255 -1:255 28 0] [0x2 3 1 [2 0] [42 4]] (REQUEST)
r 0.016896102 _26_ RTR  --- 0 AODV 48 [0 ffffffff 4 800] ------- [4:255 -1:255 28 0] [0x2 3 1 [2 0] [42 4]] (REQUEST)
r 0.016896115 _1_ RTR  --- 0 AODV 48 [0 ffffffff 4 800] ------- [4:255 -1:255 28 0] [0x2 3 1 [2 0] [42 4]] (REQUEST)
r 0.016896122 _9_ RTR  --- 0 AODV 48 [0 ffffffff 4 800] ------- [4:255 -1:255 28 0] [0x2 3 1 [2 0] [42 4]] (REQUEST)
r 0.016896128 _5_ RTR  --- 0 AODV 48 [0 ffffffff 4 800] ------- [4:255 -1:255 28 0] [0x2 3 1 [2 0] [42 4]] (REQUEST)
s 0.017194494 _5_ RTR  --- 0 AODV 48 [0 ffffffff 0 800] ------- [5:255 -1:255 28 0] [0x2 3 1 [2 0] [42 4]] (REQUEST)
s 0.017201102 _26_ MAC  --- 0 AODV 100 [0 ffffffff 1a 800] ------- [26:255 -1:255 27 0] [0x2 4 1 [2 0] [42 4]] (REQUEST)
r 0.018001561 _8_ MAC  --- 0 AODV 48 [0 ffffffff 1a 800] ------- [26:255 -1:255 27 0] [0x2 4 1 [2 0] [42 4]] (REQUEST)
r 0.018001566 _19_ MAC  --- 0 AODV 48 [0 ffffffff 1a 800] ------- [26:255 -1:255 27 0] [0x2 4 1 [2 0] [42 4]] (REQUEST)
r 0.018001574 _3_ MAC  --- 0 AODV 48 [0 ffffffff 1a 800] ------- [26:255 -1:255 27 0] [0x2 4 1 [2 0] [42 4]] (REQUEST)
r 0.018001585 _22_ MAC  --- 0 AODV 48 [0 ffffffff 1a 800] ------- [26:255 -1:255 27 0] [0x2 4 1 [2 0] [42 4]] (REQUEST)
r 0.018001752 _4_ MAC  --- 0 AODV 48 [0 ffffffff 1a 800] ------- [26:255 -1:255 27 0] [0x2 4 1 [2 0] [42 4]] (REQUEST)
r 0.018001758 _27_ MAC  --- 0 AODV 48 [0 ffffffff 1a 800] ------- [26:255 -1:255 27 0] [0x2 4 1 [2 0] [42 4]] (REQUEST)
r 0.018001778 _30_ MAC  --- 0 AODV 48 [0 ffffffff 1a 800] ------- [26:255 -1:255 27 0] [0x2 4 1 [2 0] [42 4]] (REQUEST)
r 0.018001778 _25_ MAC  --- 0 AODV 48 [0 ffffffff 1a 800] ------- [26:255 -1:255 27 0] [0x2 4 1 [2 0] [42 4]] (REQUEST)
r 0.018026561 _8_ RTR  --- 0 AODV 48 [0 ffffffff 1a 800] ------- [26:255 -1:255 27 0] [0x2 4 1 [2 0] [42 4]] (REQUEST)
r 0.018026566 _19_ RTR  --- 0 AODV 48 [0 ffffffff 1a 800] ------- [26:255 -1:255 27 0] [0x2 4 1 [2 0] [42 4]] (REQUEST)
r 0.018026574 _3_ RTR  --- 0 AODV 48 [0 ffffffff 1a 800] ------- [26:255 -1:255 27 0] [0x2 4 1 [2 0] [42 4]] (REQUEST)
r 0.018026585 _22_ RTR  --- 0 AODV 48 [0 ffffffff 1a 800] ------- [26:255 -1:255 27 0] [0x2 4 1 [2 0] [42 4]] (REQUEST)
r 0.018026752 _4_ RTR  --- 0 AODV 48 [0 ffffffff 1a 800] ------- [26:255 -1:255 27 0] [0x2 4 1 [2 0] [42 4]] (REQUEST)
r 0.018026758 _27_ RTR  --- 0 AODV 48 [0 ffffffff 1a 800] ------- [26:255 -1:255 27 0] [0x2 4 1 [2 0] [42 4]] (REQUEST)
r 0.018026778 _30_ RTR  --- 0 AODV 48 [0 ffffffff 1a 800] ------- [26:255 -1:255 27 0] [0x2 4 1 [2 0] [42 4]] (REQUEST)
r 0.018026778 _25_ RTR  --- 0 AODV 48 [0 ffffffff 1a 800] ------- [26:255 -1:255 27 0] [0x2 4 1 [2 0] [42 4]] (REQUEST)
s 0.018476180 _23_ MAC  --- 0 AODV 100 [0 ffffffff 17 800] ------- [23:255 -1:255 28 0] [0x2 3 1 [2 0] [42 4]] (REQUEST)
s 0.018669863 _6_ RTR  --- 0 AODV 48 [0 ffffffff 0 800] ------- [6:255 -1:255 28 0] [0x2 3 1 [2 0] [42 4]] (REQUEST)
s 0.018892281 _15_ RTR  --- 0 AODV 48 [0 ffffffff 0 800] ------- [15:255 -1:255 28 0] [0x2 3 1 [2 0] [42 4]] (REQUEST)
s 0.018896428 _5_ MAC  --- 0 AODV 100 [0 ffffffff 5 800] ------- [5:255 -1:255 28 0] [0x2 3 1 [2 0] [42 4]] (REQUEST)
r 0.019276652 _24_ MAC  --- 0 AODV 48 [0 ffffffff 17 800] ------- [23:255 -1:255 28 0] [0x2 3 1 [2 0] [42 4]] (REQUEST)
r 0.019276673 _25_ MAC  --- 0 AODV 48 [0 ffffffff 17 800] ------- [23:255 -1:255 28 0] [0x2 3 1 [2 0] [42 4]] (REQUEST)
r 0.019276853 _17_ MAC  --- 0 AODV 48 [0 ffffffff 17 800] ------- [23:255 -1:255 28 0] [0x2 3 1 [2 0] [42 4]] (REQUEST)
r 0.019276857 _22_ MAC  --- 0 AODV 48 [0 ffffffff 17 800] ------- [23:255 -1:255 28 0] [0x2 3 1 [2 0] [42 4]] (REQUEST)
r 0.019301652 _24_ RTR  --- 0 AODV 48 [0 ffffffff 17 800] ------- [23:255 -1:255 28 0] [0x2 3 1 [2 0] [42 4]] (REQUEST)
r 0.019301673 _25_ RTR  --- 0 AODV 48 [0 ffffffff 17 800] ------- [23:255 -1:255 28 0] [0x2 3 1 [2 0] [42 4]] (REQUEST)
r 0.019301853 _17_ RTR  --- 0 AODV 48 [0 ffffffff 17 800] ------- [23:255 -1:255 28 0] [0x2 3 1 [2 0] [42 4]] (REQUEST)
r 0.019301857 _22_ RTR  --- 0 AODV 48 [0 ffffffff 17 800] ------- [23:255 -1:255 28 0] [0x2 3 1 [2 0] [42 4]] (REQUEST)
s 0.019466059 _9_ RTR  --- 0 AODV 48 [0 ffffffff 4 800] ------- [9:255 -1:255 27 0] [0x2 4 1 [2 0] [42 4]] (REQUEST)
r 0.019696888 _11_ MAC  --- 0 AODV 48 [0 ffffffff 5 800] ------- [5:255 -1:255 28 0] [0x2 3 1 [2 0] [42 4]] (REQUEST)
r 0.019696900 _6_ MAC  --- 0 AODV 48 [0 ffffffff 5 800] ------- [5:255 -1:255 28 0] [0x2 3 1 [2 0] [42 4]] (REQUEST)
r 0.019696902 _15_ MAC  --- 0 AODV 48 [0 ffffffff 5 800] ------- [5:255 -1:255 28 0] [0x2 3 1 [2 0] [42 4]] (REQUEST)
D 0.019696909 _0_ MAC  COL 0 AODV 100 [0 ffffffff 5 800] ------- [5:255 -1:255 28 0] [0x2 3 1 [2 0] [42 4]] (REQUEST)
r 0.019697092 _10_ MAC  --- 0 AODV 48 [0 ffffffff 5 800] ------- [5:255 -1:255 28 0] [0x2 3 1 [2 0] [42 4]] (REQUEST)
D 0.019697099 _2_ MAC  COL 0 AODV 100 [0 ffffffff 5 800] ------- [5:255 -1:255 28 0] [0x2 3 1 [2 0] [42 4]] (REQUEST)
D 0.019697105 _4_ MAC  COL 0 AODV 100 [0 ffffffff 5 800] ------- [5:255 -1:255 28 0] [0x2 3 1 [2 0] [42 4]] (REQUEST)
r 0.019721888 _11_ RTR  --- 0 AODV 48 [0 ffffffff 5 800] ------- [5:255 -1:255 28 0] [0x2 3 1 [2 0] [42 4]] (REQUEST)
r 0.019721900 _6_ RTR  --- 0 AODV 48 [0 ffffffff 5 800] ------- [5:255 -1:255 28 0] [0x2 3 1 [2 0] [42 4]] (REQUEST)
r 0.019721902 _15_ RTR  --- 0 AODV 48 [0 ffffffff 5 800] ------- [5:255 -1:255 28 0] [0x2 3 1 [2 0] [42 4]] (REQUEST)
r 0.019722092 _10_ RTR  --- 0 AODV 48 [0 ffffffff 5 800] ------- [5:255 -1:255 28 0] [0x2 3 1 [2 0] [42 4]] (REQUEST)
s 0.019826900 _6_ MAC  --- 0 AODV 100 [0 ffffffff 6 800] ------- [6:255 -1:255 28 0] [0x2 3 1 [2 0] [42 4]] (REQUEST)
s 0.019826902 _15_ MAC  --- 0 AODV 100 [0 ffffffff f 800] ------- [15:255 -1:255 28 0] [0x2 3 1 [2 0] [42 4]] (REQUEST)
D 0.019827376 _5_ MAC  COL 0 AODV 100 [0 ffffffff 6 800] ------- [6:255 -1:255 28 0] [0x2 3 1 [2 0] [42 4]] (REQUEST)
D 0.019827567 _0_ MAC  COL 0 AODV 100 [0 ffffffff f 800] ------- [15:255 -1:255 28 0] [0x2 3 1 [2 0] [42 4]] (REQUEST)
D 0.019827579 _11_ MAC  COL 0 AODV 100 [0 ffffffff 6 800] ------- [6:255 -1:255 28 0] [0x2 3 1 [2 0] [42 4]] (REQUEST)
r 0.020627371 _4_ MAC  --- 0 AODV 48 [0 ffffffff f 800] ------- [15:255 -1:255 28 0] [0x2 3 1 [2 0] [42 4]] (REQUEST)
r 0.020627371 _2_ MAC  --- 0 AODV 48 [0 ffffffff 6 800] ------- [6:255 -1:255 28 0] [0x2 3 1 [2 0] [42 4]] (REQUEST)
D 0.020627376 _5_ MAC  COL 0 AODV 100 [0 ffffffff f 800] ------- [15:255 -1:255 28 0] [0x2 3 1 [2 0] [42 4]] (REQUEST)
r 0.020627378 _9_ MAC  --- 0 AODV 48 [0 ffffffff f 800] ------- [15:255 -1:255 28 0] [0x2 3 1 [2 0] [42 4]] (REQUEST)
r 0.020627383 _10_ MAC  --- 0 AODV 48 [0 ffffffff f 800] ------- [15:255 -1:255 28 0] [0x2 3 1 [2 0] [42 4]] (REQUEST)
r 0.020627562 _8_ MAC  --- 0 AODV 48 [0 ffffffff f 800] ------- [15:255 -1:255 28 0] [0x2 3 1 [2 0] [42 4]] (REQUEST)
D 0.020627567 _0_ MAC  COL 0 AODV 100 [0 ffffffff 6 800] ------- [6:255 -1:255 28 0] [0x2 3 1 [2 0] [42 4]] (REQUEST)
r 0.020627579 _16_ MAC  --- 0 AODV 48 [0 ffffffff f 800] ------- [15:255 -1:255 28 0] [0x2 3 1 [2 0] [42 4]] (REQUEST)
D 0.020627579 _11_ MAC  COL 0 AODV 100 [0 ffffffff f 800] ------- [15:255 -1:255 28 0] [0x2 3 1 [2 0] [42 4]] (REQUEST)
s 0.020645000 _27_ RTR  --- 0 AODV 48 [0 ffffffff 1a 800] ------- [27:255 -1:255 26 0] [0x2 5 1 [2 0] [42 4]] (REQUEST)
r 0.020652371 _4_ RTR  --- 0 AODV 48 [0 ffffffff f 800] ------- [15:255 -1:255 28 0] [0x2 3 1 [2 0] [42 4]] (REQUEST)
r 0.020652371 _2_ RTR  --- 0 AODV 48 [0 ffffffff 6 800] ------- [6:255 -1:255 28 0] [0x2 3 1 [2 0] [42 4]] (REQUEST)
r 0.020652378 _9_ RTR  --- 0 AODV 48 [0 ffffffff f 800] ------- [15:255 -1:255 28 0] [0x2 3 1 [2 0] [42 4]] (REQUEST)
r 0.020652383 _10_ RTR  --- 0 AODV 48 [0 ffffffff f 800] ------- [15:255 -1:255 28 0] [0x2 3 1 [2 0] [42 4]] (REQUEST)
r 0.020652562 _8_ RTR  --- 0 AODV 48 [0 ffffffff f 800] ------- [15:255 -1:255 28 0] [0x2 3 1 [2 0] [42 4]] (REQUEST)
r 0.020652579 _16_ RTR  --- 0 AODV 48 [0 ffffffff f 800] ------- [15:255 -1:255 28 0] [0x2 3 1 [2 0] [42 4]] (REQUEST)
s 0.021042321 _9_ MAC  --- 0 AODV 100 [0 ffffffff 9 800] ------- [9:255 -1:255 27 0] [0x2 4 1 [2 0] [42 4]] (REQUEST)
r 0.021842783 _13_ MAC  --- 0 AODV 48 [0 ffffffff 9 800] ------- [9:255 -1:255 27 0] [0x2 4 1 [2 0] [42 4]] (REQUEST)
r 0.021842788 _8_ MAC  --- 0 AODV 48 [0 ffffffff 9 800] ------- [9:255 -1:255 27 0] [0x2 4 1 [2 0] [42 4]] (REQUEST)
r 0.021842797 _15_ MAC  --- 0 AODV 48 [0 ffffffff 9 800] ------- [9:255 -1:255 27 0] [0x2 4 1 [2 0] [42 4]] (REQUEST)
r 0.021842800 _16_ MAC  --- 0 AODV 48 [0 ffffffff 9 800] ------- [9:255 -1:255 27 0] [0x2 4 1 [2 0] [42 4]] (REQUEST)
r 0.021842978 _27_ MAC  --- 0 AODV 48 [0 ffffffff 9 800] ------- [9:255 -1:255 27 0] [0x2 4 1 [2 0] [42 4]] (REQUEST)
r 0.021842991 _4_ MAC  --- 0 AODV 48 [0 ffffffff 9 800] ------- [9:255 -1:255 27 0] [0x2 4 1 [2 0] [42 4]] (REQUEST)
r 0.021842992 _7_ MAC  --- 0 AODV 48 [0 ffffffff 9 800] ------- [9:255 -1:255 27 0] [0x2 4 1 [2 0] [42 4]] (REQUEST)
r 0.021842998 _10_ MAC  --- 0 AODV 48 [0 ffffffff 9 800] ------- [9:255 -1:255 27 0] [0x2 4 1 [2 0] [42 4]] (REQUEST)
r 0.021867783 _13_ RTR  --- 0 AODV 48 [0 ffffffff 9 800] ------- [9:255 -1:255 27 0] [0x2 4 1 [2 0] [42 4]] (REQUEST)
r 0.021867788 _8_ RTR  --- 0 AODV 48 [0 ffffffff 9 800] ------- [9:255 -1:255 27 0] [0x2 4 1 [2 0] [42 4]] (REQUEST)
r 0.021867797 _15_ RTR  --- 0 AODV 48 [0 ffffffff 9 800] ------- [9:255 -1:255 27 0] [0x2 4 1 [2 0] [42 4]] (REQUEST)
r 0.021867800 _16_ RTR  --- 0 AODV 48 [0 ffffffff 9 800] ------- [9:255 -1:255 27 0] [0x2 4 1 [2 0] [42 4]] (REQUEST)
r 0.021867978 _27_ RTR  --- 0 AODV 48 [0 ffffffff 9 800] ------- [9:255 -1:255 27 0] [0x2 4 1 [2 0] [42 4]] (REQUEST)
r 0.021867991 _4_ RTR  --- 0 AODV 48 [0 ffffffff 9 800] ------- [9:255 -1:255 27 0] [0x2 4 1 [2 0] [42 4]] (REQUEST)
r 0.021867992 _7_ RTR  --- 0 AODV 48 [0 ffffffff 9 800] ------- [9:255 -1:255 27 0] [0x2 4 1 [2 0] [42 4]] (REQUEST)
r 0.021867998 _10_ RTR  --- 0 AODV 48 [0 ffffffff 9 800] ------- [9:255 -1:255 27 0] [0x2 4 1 [2 0] [42 4]] (REQUEST)
s 0.021955926 _8_ RTR  --- 0 AODV 48 [0 ffffffff 3 800] ------- [8:255 -1:255 27 0] [0x2 4 1 [2 0] [42 4]] (REQUEST)
s 0.022012978 _27_ MAC  --- 0 AODV 100 [0 ffffffff 1b 800] ------- [27:255 -1:255 26 0] [0x2 5 1 [2 0] [42 4]] (REQUEST)
s 0.022369326 _7_ RTR  --- 0 AODV 48 [0 ffffffff 9 800] ------- [7:255 -1:255 26 0] [0x2 5 1 [2 0] [42 4]] (REQUEST)
s 0.022439857 _16_ RTR  --- 0 AODV 48 [0 ffffffff f 800] ------- [16:255 -1:255 27 0] [0x2 4 1 [2 0] [42 4]] (REQUEST)
s 0.022698026 _42_ MAC  --- 0 RTS 44 [7de 2 2a 0] 
r 0.022813445 _8_ MAC  --- 0 AODV 48 [0 ffffffff 1b 800] ------- [27:255 -1:255 26 0] [0x2 5 1 [2 0] [42 4]] (REQUEST)
r 0.022813449 _19_ MAC  --- 0 AODV 48 [0 ffffffff 1b 800] ------- [27:255 -1:255 26 0] [0x2 5 1 [2 0] [42 4]] (REQUEST)
r 0.022813452 _21_ MAC  --- 0 AODV 48 [0 ffffffff 1b 800] ------- [27:255 -1:255 26 0] [0x2 5 1 [2 0] [42 4]] (REQUEST)
r 0.022813454 _13_ MAC  --- 0 AODV 48 [0 ffffffff 1b 800] ------- [27:255 -1:255 26 0] [0x2 5 1 [2 0] [42 4]] (REQUEST)
r 0.022813635 _9_ MAC  --- 0 AODV 48 [0 ffffffff 1b 800] ------- [27:255 -1:255 26 0] [0x2 5 1 [2 0] [42 4]] (REQUEST)
r 0.022813635 _26_ MAC  --- 0 AODV 48 [0 ffffffff 1b 800] ------- [27:255 -1:255 26 0] [0x2 5 1 [2 0] [42 4]] (REQUEST)
r 0.022813645 _31_ MAC  --- 0 AODV 48 [0 ffffffff 1b 800] ------- [27:255 -1:255 26 0] [0x2 5 1 [2 0] [42 4]] (REQUEST)
r 0.022813651 _20_ MAC  --- 0 AODV 48 [0 ffffffff 1b 800] ------- [27:255 -1:255 26 0] [0x2 5 1 [2 0] [42 4]] (REQUEST)
r 0.022838445 _8_ RTR  --- 0 AODV 48 [0 ffffffff 1b 800] ------- [27:255 -1:255 26 0] [0x2 5 1 [2 0] [42 4]] (REQUEST)
r 0.022838449 _19_ RTR  --- 0 AODV 48 [0 ffffffff 1b 800] ------- [27:255 -1:255 26 0] [0x2 5 1 [2 0] [42 4]] (REQUEST)
r 0.022838452 _21_ RTR  --- 0 AODV 48 [0 ffffffff 1b 800] ------- [27:255 -1:255 26 0] [0x2 5 1 [2 0] [42 4]] (REQUEST)
r 0.022838454 _13_ RTR  --- 0 AODV 48 [0 ffffffff 1b 800] ------- [27:255 -1:255 26 0] [0x2 5 1 [2 0] [42 4]] (REQUEST)
r 0.022838635 _9_ RTR  --- 0 AODV 48 [0 ffffffff 1b 800] ------- [27:255 -1:255 26 0] [0x2 5 1 [2 0] [42 4]] (REQUEST)
r 0.022838635 _26_ RTR  --- 0 AODV 48 [0 ffffffff 1b 800] ------- [27:255 -1:255 26 0] [0x2 5 1 [2 0] [42 4]] (REQUEST)
r 0.022838645 _31_ RTR  --- 0 AODV 48 [0 ffffffff 1b 800] ------- [27:255 -1:255 26 0] [0x2 5 1 [2 0] [42 4]] (REQUEST)
r 0.022838651 _20_ RTR  --- 0 AODV 48 [0 ffffffff 1b 800] ------- [27:255 -1:255 26 0] [0x2 5 1 [2 0] [42 4]] (REQUEST)
r 0.023050490 _2_ MAC  --- 0 RTS 44 [7de 2 2a 0] 
s 0.023060490 _2_ MAC  --- 0 CTS 38 [6a4 2a 0 0] 
r 0.023364954 _42_ MAC  --- 0 CTS 38 [6a4 2a 0 0] 
s 0.023374954 _42_ MAC  --- 2 cbr 172 [13a 2 2a 800] ------- [42:0 2:0 30 2] [2] 0 0
s 0.023427935 _7_ MAC  --- 0 AODV 100 [0 ffffffff 7 800] ------- [7:255 -1:255 26 0] [0x2 5 1 [2 0] [42 4]] (REQUEST)
D 0.023428605 _9_ MAC  COL 0 AODV 100 [0 ffffffff 7 800] ------- [7:255 -1:255 26 0] [0x2 5 1 [2 0] [42 4]] (REQUEST)
s 0.023575175 _30_ RTR  --- 0 AODV 48 [0 ffffffff 1a 800] ------- [30:255 -1:255 26 0] [0x2 5 1 [2 0] [42 4]] (REQUEST)
s 0.023720453 _21_ RTR  --- 0 AODV 48 [0 ffffffff 1b 800] ------- [21:255 -1:255 25 0] [0x2 6 1 [2 0] [42 4]] (REQUEST)
s 0.023948671 _24_ RTR  --- 0 AODV 48 [0 ffffffff 19 800] ------- [24:255 -1:255 27 0] [0x2 4 1 [2 0] [42 4]] (REQUEST)
s 0.024000000 _42_ AGT  --- 3 cbr 100 [0 0 0 0] ------- [42:0 2:0 32 0] [3] 0 0
r 0.024000000 _42_ RTR  --- 3 cbr 100 [0 0 0 0] ------- [42:0 2:0 32 0] [3] 0 0
s 0.024000000 _42_ RTR  --- 3 cbr 120 [0 0 0 0] ------- [42:0 2:0 30 2] [3] 0 0
r 0.024228395 _16_ MAC  --- 0 AODV 48 [0 ffffffff 7 800] ------- [7:255 -1:255 26 0] [0x2 5 1 [2 0] [42 4]] (REQUEST)
r 0.024228407 _18_ MAC  --- 0 AODV 48 [0 ffffffff 7 800] ------- [7:255 -1:255 26 0] [0x2 5 1 [2 0] [42 4]] (REQUEST)