M 1.00000 0 (485.53, 12.72, 0.00), (450.00, 120.00), 30.00
M 1.00000 10 (485.22, 24.73, 0.00), (485.00, 100.00), 30.00
M 1.00000 11 (522.22, 30.73, 0.00), (405.00, 150.00), 30.00
s 1.000000000 _0_ AGT  --- 0 tcp 40 [0 0 0 0] [energy 0.500000] ------- [0:0 7:0 32 0] [0 0] 0 0
s 1.001305000 _0_ MAC  --- 0 AODV 55 [0 ffffffff 0 800] [energy 0.500000] ------- [0:255 -1:255 30 0] [0x2 1 1 [7 0] [0 4]] (REQUEST)
r 1.003897040 _10_ MAC  --- 0 AODV 48 [0 ffffffff 0 800] [energy 0.499919] ------- [0:255 -1:255 30 0] [0x2 1 1 [7 0] [0 4]] (REQUEST)
r 1.003897130 _1_ MAC  --- 0 AODV 48 [0 ffffffff 0 800] [energy 0.499919] ------- [0:255 -1:255 30 0] [0x2 1 1 [7 0] [0 4]] (REQUEST)
r 1.003897136 _11_ MAC  --- 0 AODV 48 [0 ffffffff 0 800] [energy 0.499919] ------- [0:255 -1:255 30 0] [0x2 1 1 [7 0] [0 4]] (REQUEST)
r 1.003897262 _2_ MAC  --- 0 AODV 48 [0 ffffffff 0 800] [energy 0.499919] ------- [0:255 -1:255 30 0] [0x2 1 1 [7 0] [0 4]] (REQUEST)
r 1.003897292 _12_ MAC  --- 0 AODV 48 [0 ffffffff 0 800] [energy 0.499919] ------- [0:255 -1:255 30 0] [0x2 1 1 [7 0] [0 4]] (REQUEST)
r 1.003897383 _3_ MAC  --- 0 AODV 48 [0 ffffffff 0 800] [energy 0.499919] ------- [0:255 -1:255 30 0] [0x2 1 1 [7 0] [0 4]] (REQUEST)
r 1.003897427 _8_ MAC  --- 0 AODV 48 [0 ffffffff 0 800] [energy 0.499919] ------- [0:255 -1:255 30 0] [0x2 1 1 [7 0] [0 4]] (REQUEST)
r 1.003897516 _4_ MAC  --- 0 AODV 48 [0 ffffffff 0 800] [energy 0.499919] ------- [0:255 -1:255 30 0] [0x2 1 1 [7 0] [0 4]] (REQUEST)
r 1.003897647 _5_ MAC  --- 0 AODV 48 [0 ffffffff 0 800] [energy 0.499919] ------- [0:255 -1:255 30 0] [0x2 1 1 [7 0] [0 4]] (REQUEST)
r 1.003897695 _9_ MAC  --- 0 AODV 48 [0 ffffffff 0 800] [energy 0.499919] ------- [0:255 -1:255 30 0] [0x2 1 1 [7 0] [0 4]] (REQUEST)
s 1.005708008 _9_ MAC  --- 0 AODV 55 [0 ffffffff 9 800] [energy 0.499919] ------- [9:255 -1:255 29 0] [0x2 2 1 [7 0] [0 4]] (REQUEST)
r 1.008300444 _5_ MAC  --- 0 AODV 48 [0 ffffffff 9 800] [energy 0.499838] ------- [9:255 -1:255 29 0] [0x2 2 1 [7 0] [0 4]] (REQUEST)
r 1.008300451 _12_ MAC  --- 0 AODV 48 [0 ffffffff 9 800] [energy 0.499838] ------- [9:255 -1:255 29 0] [0x2 2 1 [7 0] [0 4]] (REQUEST)
r 1.008300484 _4_ MAC  --- 0 AODV 48 [0 ffffffff 9 800] [energy 0.499838] ------- [9:255 -1:255 29 0] [0x2 2 1 [7 0] [0 4]] (REQUEST)
r 1.008300513 _3_ MAC  --- 0 AODV 48 [0 ffffffff 9 800] [energy 0.499838] ------- [9:255 -1:255 29 0] [0x2 2 1 [7 0] [0 4]] (REQUEST)
r 1.008300558 _8_ MAC  --- 0 AODV 48 [0 ffffffff 9 800] [energy 0.499838] ------- [9:255 -1:255 29 0] [0x2 2 1 [7 0] [0 4]] (REQUEST)
r 1.008300571 _11_ MAC  --- 0 AODV 48 [0 ffffffff 9 800] [energy 0.499838] ------- [9:255 -1:255 29 0] [0x2 2 1 [7 0] [0 4]] (REQUEST)
r 1.008300578 _2_ MAC  --- 0 AODV 48 [0 ffffffff 9 800] [energy 0.499838] ------- [9:255 -1:255 29 0] [0x2 2 1 [7 0] [0 4]] (REQUEST)
r 1.008300592 _6_ MAC  --- 0 AODV 48 [0 ffffffff 9 800] [energy 0.499876] ------- [9:255 -1:255 29 0] [0x2 2 1 [7 0] [0 4]] (REQUEST)
r 1.008300643 _1_ MAC  --- 0 AODV 48 [0 ffffffff 9 800] [energy 0.499838] ------- [9:255 -1:255 29 0] [0x2 2 1 [7 0] [0 4]] (REQUEST)
r 1.008300680 _10_ MAC  --- 0 AODV 48 [0 ffffffff 9 800] [energy 0.499838] ------- [9:255 -1:255 29 0] [0x2 2 1 [7 0] [0 4]] (REQUEST)
r 1.008300704 _0_ MAC  --- 0 AODV 48 [0 ffffffff 9 800] [energy 0.499876] ------- [9:255 -1:255 29 0] [0x2 2 1 [7 0] [0 4]] (REQUEST)
s 1.009602327 _11_ MAC  --- 0 AODV 55 [0 ffffffff b 800] [energy 0.499838] ------- [11:255 -1:255 29 0] [0x2 2 1 [7 0] [0 4]] (REQUEST)
r 1.012194430 _1_ MAC  --- 0 AODV 48 [0 ffffffff b 800] [energy 0.499756] ------- [11:255 -1:255 29 0] [0x2 2 1 [7 0] [0 4]] (REQUEST)
r 1.012194451 _10_ MAC  --- 0 AODV 48 [0 ffffffff b 800] [energy 0.499756] ------- [11:255 -1:255 29 0] [0x2 2 1 [7 0] [0 4]] (REQUEST)
r 1.012194463 _0_ MAC  --- 0 AODV 48 [0 ffffffff b 800] [energy 0.499795] ------- [11:255 -1:255 29 0] [0x2 2 1 [7 0] [0 4]] (REQUEST)
r 1.012194488 _12_ MAC  --- 0 AODV 48 [0 ffffffff b 800] [energy 0.499756] ------- [11:255 -1:255 29 0] [0x2 2 1 [7 0] [0 4]] (REQUEST)
r 1.012194508 _2_ MAC  --- 0 AODV 48 [0 ffffffff b 800] [energy 0.499756] ------- [11:255 -1:255 29 0] [0x2 2 1 [7 0] [0 4]] (REQUEST)
r 1.012194607 _3_ MAC  --- 0 AODV 48 [0 ffffffff b 800] [energy 0.499756] ------- [11:255 -1:255 29 0] [0x2 2 1 [7 0] [0 4]] (REQUEST)
r 1.012194713 _8_ MAC  --- 0 AODV 48 [0 ffffffff b 800] [energy 0.499756] ------- [11:255 -1:255 29 0] [0x2 2 1 [7 0] [0 4]] (REQUEST)
r 1.012194733 _4_ MAC  --- 0 AODV 48 [0 ffffffff b 800] [energy 0.499756] ------- [11:255 -1:255 29 0] [0x2 2 1 [7 0] [0 4]] (REQUEST)
r 1.012194856 _5_ MAC  --- 0 AODV 48 [0 ffffffff b 800] [energy 0.499756] ------- [11:255 -1:255 29 0] [0x2 2 1 [7 0] [0 4]] (REQUEST)
r 1.012194890 _9_ MAC  --- 0 AODV 48 [0 ffffffff b 800] [energy 0.499795] ------- [11:255 -1:255 29 0] [0x2 2 1 [7 0] [0 4]] (REQUEST)
s 1.012917367 _12_ MAC  --- 0 AODV 55 [0 ffffffff c 800] [energy 0.499756] ------- [12:255 -1:255 29 0] [0x2 2 1 [7 0] [0 4]] (REQUEST)
s 1.015421126 _5_ MAC  --- 0 AODV 55 [0 ffffffff 5 800] [energy 0.499675] ------- [5:255 -1:255 29 0] [0x2 2 1 [7 0] [0 4]] (REQUEST)
r 1.015509504 _2_ MAC  --- 0 AODV 48 [0 ffffffff c 800] [energy 0.499632] ------- [12:255 -1:255 29 0] [0x2 2 1 [7 0] [0 4]] (REQUEST)
r 1.015509523 _3_ MAC  --- 0 AODV 48 [0 ffffffff c 800] [energy 0.499632] ------- [12:255 -1:255 29 0] [0x2 2 1 [7 0] [0 4]] (REQUEST)
r 1.015509528 _11_ MAC  --- 0 AODV 48 [0 ffffffff c 800] [energy 0.499671] ------- [12:255 -1:255 29 0] [0x2 2 1 [7 0] [0 4]] (REQUEST)
r 1.015509564 _1_ MAC  --- 0 AODV 48 [0 ffffffff c 800] [energy 0.499632] ------- [12:255 -1:255 29 0] [0x2 2 1 [7 0] [0 4]] (REQUEST)
r 1.015509628 _4_ MAC  --- 0 AODV 48 [0 ffffffff c 800] [energy 0.499632] ------- [12:255 -1:255 29 0] [0x2 2 1 [7 0] [0 4]] (REQUEST)
r 1.015509652 _10_ MAC  --- 0 AODV 48 [0 ffffffff c 800] [energy 0.499632] ------- [12:255 -1:255 29 0] [0x2 2 1 [7 0] [0 4]] (REQUEST)
r 1.015509659 _0_ MAC  --- 0 AODV 48 [0 ffffffff c 800] [energy 0.499671] ------- [12:255 -1:255 29 0] [0x2 2 1 [7 0] [0 4]] (REQUEST)
r 1.015509739 _5_ MAC  --- 0 AODV 48 [0 ffffffff c 800] [energy 0.499632] ------- [12:255 -1:255 29 0] [0x2 2 1 [7 0] [0 4]] (REQUEST)
r 1.015509810 _9_ MAC  --- 0 AODV 48 [0 ffffffff c 800] [energy 0.499671] ------- [12:255 -1:255 29 0] [0x2 2 1 [7 0] [0 4]] (REQUEST)
r 1.015509820 _8_ MAC  --- 0 AODV 48 [0 ffffffff c 800] [energy 0.499632] ------- [12:255 -1:255 29 0] [0x2 2 1 [7 0] [0 4]] (REQUEST)
s 1.017732584 _1_ MAC  --- 0 AODV 55 [0 ffffffff 1 800] [energy 0.499594] ------- [1:255 -1:255 29 0] [0x2 2 1 [7 0] [0 4]] (REQUEST)
r 1.018013268 _4_ MAC  --- 0 AODV 48 [0 ffffffff 5 800] [energy 0.499551] ------- [5:255 -1:255 29 0] [0x2 2 1 [7 0] [0 4]] (REQUEST)
r 1.018013398 _3_ MAC  --- 0 AODV 48 [0 ffffffff 5 800] [energy 0.499551] ------- [5:255 -1:255 29 0] [0x2 2 1 [7 0] [0 4]] (REQUEST)
r 1.018013497 _12_ MAC  --- 0 AODV 48 [0 ffffffff 5 800] [energy 0.499590] ------- [5:255 -1:255 29 0] [0x2 2 1 [7 0] [0 4]] (REQUEST)
r 1.018013523 _2_ MAC  --- 0 AODV 48 [0 ffffffff 5 800] [energy 0.499551] ------- [5:255 -1:255 29 0] [0x2 2 1 [7 0] [0 4]] (REQUEST)
r 1.018013561 _9_ MAC  --- 0 AODV 48 [0 ffffffff 5 800] [energy 0.499590] ------- [5:255 -1:255 29 0] [0x2 2 1 [7 0] [0 4]] (REQUEST)
r 1.018013652 _1_ MAC  --- 0 AODV 48 [0 ffffffff 5 800] [energy 0.499551] ------- [5:255 -1:255 29 0] [0x2 2 1 [7 0] [0 4]] (REQUEST)
r 1.018013655 _11_ MAC  --- 0 AODV 48 [0 ffffffff 5 800] [energy 0.499590] ------- [5:255 -1:255 29 0] [0x2 2 1 [7 0] [0 4]] (REQUEST)
r 1.018013773 _0_ MAC  --- 0 AODV 48 [0 ffffffff 5 800] [energy 0.499590] ------- [5:255 -1:255 29 0] [0x2 2 1 [7 0] [0 4]] (REQUEST)
r 1.018013775 _10_ MAC  --- 0 AODV 48 [0 ffffffff 5 800] [energy 0.499551] ------- [5:255 -1:255 29 0] [0x2 2 1 [7 0] [0 4]] (REQUEST)
r 1.018013900 _8_ MAC  --- 0 AODV 48 [0 ffffffff 5 800] [energy 0.499551] ------- [5:255 -1:255 29 0] [0x2 2 1 [7 0] [0 4]] (REQUEST)
s 1.020066165 _4_ MAC  --- 0 AODV 55 [0 ffffffff 4 800] [energy 0.499513] ------- [4:255 -1:255 29 0] [0x2 2 1 [7 0] [0 4]] (REQUEST)
r 1.020324688 _11_ MAC  --- 0 AODV 48 [0 ffffffff 1 800] [energy 0.499509] ------- [1:255 -1:255 29 0] [0x2 2 1 [7 0] [0 4]] (REQUEST)
r 1.020324715 _0_ MAC  --- 0 AODV 48 [0 ffffffff 1 800] [energy 0.499509] ------- [1:255 -1:255 29 0] [0x2 2 1 [7 0] [0 4]] (REQUEST)
r 1.020324718 _2_ MAC  --- 0 AODV 48 [0 ffffffff 1 800] [energy 0.499470] ------- [1:255 -1:255 29 0] [0x2 2 1 [7 0] [0 4]] (REQUEST)
r 1.020324734 _10_ MAC  --- 0 AODV 48 [0 ffffffff 1 800] [energy 0.499470] ------- [1:255 -1:255 29 0] [0x2 2 1 [7 0] [0 4]] (REQUEST)
r 1.020324782 _12_ MAC  --- 0 AODV 48 [0 ffffffff 1 800] [energy 0.499509] ------- [1:255 -1:255 29 0] [0x2 2 1 [7 0] [0 4]] (REQUEST)
r 1.020324841 _3_ MAC  --- 0 AODV 48 [0 ffffffff 1 800] [energy 0.499470] ------- [1:255 -1:255 29 0] [0x2 2 1 [7 0] [0 4]] (REQUEST)
r 1.020324975 _4_ MAC  --- 0 AODV 48 [0 ffffffff 1 800] [energy 0.499470] ------- [1:255 -1:255 29 0] [0x2 2 1 [7 0] [0 4]] (REQUEST)
r 1.020325069 _8_ MAC  --- 0 AODV 48 [0 ffffffff 1 800] [energy 0.499470] ------- [1:255 -1:255 29 0] [0x2 2 1 [7 0] [0 4]] (REQUEST)
r 1.020325111 _5_ MAC  --- 0 AODV 48 [0 ffffffff 1 800] [energy 0.499509] ------- [1:255 -1:255 29 0] [0x2 2 1 [7 0] [0 4]] (REQUEST)
r 1.020325218 _9_ MAC  --- 0 AODV 48 [0 ffffffff 1 800] [energy 0.499509] ------- [1:255 -1:255 29 0] [0x2 2 1 [7 0] [0 4]] (REQUEST)
r 1.022658299 _3_ MAC  --- 0 AODV 48 [0 ffffffff 4 800] [energy 0.499432] ------- [4:255 -1:255 29 0] [0x2 2 1 [7 0] [0 4]] (REQUEST)
r 1.022658308 _5_ MAC  --- 0 AODV 48 [0 ffffffff 4 800] [energy 0.499470] ------- [4:255 -1:255 29 0] [0x2 2 1 [7 0] [0 4]] (REQUEST)
r 1.022658424 _2_ MAC  --- 0 AODV 48 [0 ffffffff 4 800] [energy 0.499432] ------- [4:255 -1:255 29 0] [0x2 2 1 [7 0] [0 4]] (REQUEST)
r 1.022658426 _12_ MAC  --- 0 AODV 48 [0 ffffffff 4 800] [energy 0.499470] ------- [4:255 -1:255 29 0] [0x2 2 1 [7 0] [0 4]] (REQUEST)
r 1.022658556 _1_ MAC  --- 0 AODV 48 [0 ffffffff 4 800] [energy 0.499470] ------- [4:255 -1:255 29 0] [0x2 2 1 [7 0] [0 4]] (REQUEST)
r 1.022658572 _11_ MAC  --- 0 AODV 48 [0 ffffffff 4 800] [energy 0.499470] ------- [4:255 -1:255 29 0] [0x2 2 1 [7 0] [0 4]] (REQUEST)
r 1.022658640 _9_ MAC  --- 0 AODV 48 [0 ffffffff 4 800] [energy 0.499470] ------- [4:255 -1:255 29 0] [0x2 2 1 [7 0] [0 4]] (REQUEST)
r 1.022658681 _0_ MAC  --- 0 AODV 48 [0 ffffffff 4 800] [energy 0.499470] ------- [4:255 -1:255 29 0] [0x2 2 1 [7 0] [0 4]] (REQUEST)
r 1.022658687 _10_ MAC  --- 0 AODV 48 [0 ffffffff 4 800] [energy 0.499432] ------- [4:255 -1:255 29 0] [0x2 2 1 [7 0] [0 4]] (REQUEST)
r 1.022658865 _8_ MAC  --- 0 AODV 48 [0 ffffffff 4 800] [energy 0.499432] ------- [4:255 -1:255 29 0] [0x2 2 1 [7 0] [0 4]] (REQUEST)
s 1.022677862 _8_ MAC  --- 0 AODV 55 [0 ffffffff 8 800] [energy 0.499432] ------- [8:255 -1:255 29 0] [0x2 2 1 [7 0] [0 4]] (REQUEST)
r 1.025270246 _10_ MAC  --- 0 AODV 48 [0 ffffffff 8 800] [energy 0.499350] ------- [8:255 -1:255 29 0] [0x2 2 1 [7 0] [0 4]] (REQUEST)
r 1.025270247 _11_ MAC  --- 0 AODV 48 [0 ffffffff 8 800] [energy 0.499389] ------- [8:255 -1:255 29 0] [0x2 2 1 [7 0] [0 4]] (REQUEST)
r 1.025270287 _0_ MAC  --- 0 AODV 48 [0 ffffffff 8 800] [energy 0.499389] ------- [8:255 -1:255 29 0] [0x2 2 1 [7 0] [0 4]] (REQUEST)
r 1.025270315 _12_ MAC  --- 0 AODV 48 [0 ffffffff 8 800] [energy 0.499389] ------- [8:255 -1:255 29 0] [0x2 2 1 [7 0] [0 4]] (REQUEST)
r 1.025270347 _1_ MAC  --- 0 AODV 48 [0 ffffffff 8 800] [energy 0.499389] ------- [8:255 -1:255 29 0] [0x2 2 1 [7 0] [0 4]] (REQUEST)
r 1.025270412 _9_ MAC  --- 0 AODV 48 [0 ffffffff 8 800] [energy 0.499389] ------- [8:255 -1:255 29 0] [0x2 2 1 [7 0] [0 4]] (REQUEST)
r 1.025270413 _2_ MAC  --- 0 AODV 48 [0 ffffffff 8 800] [energy 0.499350] ------- [8:255 -1:255 29 0] [0x2 2 1 [7 0] [0 4]] (REQUEST)
r 1.025270471 _3_ MAC  --- 0 AODV 48 [0 ffffffff 8 800] [energy 0.499350] ------- [8:255 -1:255 29 0] [0x2 2 1 [7 0] [0 4]] (REQUEST)
r 1.025270477 _6_ MAC  --- 0 AODV 48 [0 ffffffff 8 800] [energy 0.499581] ------- [8:255 -1:255 29 0] [0x2 2 1 [7 0] [0 4]] (REQUEST)
r 1.025270562 _4_ MAC  --- 0 AODV 48 [0 ffffffff 8 800] [energy 0.499389] ------- [8:255 -1:255 29 0] [0x2 2 1 [7 0] [0 4]] (REQUEST)
r 1.025270637 _5_ MAC  --- 0 AODV 48 [0 ffffffff 8 800] [energy 0.499389] ------- [8:255 -1:255 29 0] [0x2 2 1 [7 0] [0 4]] (REQUEST)
s 1.025597035 _3_ MAC  --- 0 AODV 55 [0 ffffffff 3 800] [energy 0.499350] ------- [3:255 -1:255 29 0] [0x2 2 1 [7 0] [0 4]] (REQUEST)
r 1.028189160 _2_ MAC  --- 0 AODV 48 [0 ffffffff 3 800] [energy 0.499269] ------- [3:255 -1:255 29 0] [0x2 2 1 [7 0] [0 4]] (REQUEST)
r 1.028189169 _4_ MAC  --- 0 AODV 48 [0 ffffffff 3 800] [energy 0.499308] ------- [3:255 -1:255 29 0] [0x2 2 1 [7 0] [0 4]] (REQUEST)
r 1.028189191 _12_ MAC  --- 0 AODV 48 [0 ffffffff 3 800] [energy 0.499308] ------- [3:255 -1:255 29 0] [0x2 2 1 [7 0] [0 4]] (REQUEST)
r 1.028189292 _1_ MAC  --- 0 AODV 48 [0 ffffffff 3 800] [energy 0.499308] ------- [3:255 -1:255 29 0] [0x2 2 1 [7 0] [0 4]] (REQUEST)
r 1.028189308 _5_ MAC  --- 0 AODV 48 [0 ffffffff 3 800] [energy 0.499308] ------- [3:255 -1:255 29 0] [0x2 2 1 [7 0] [0 4]] (REQUEST)
r 1.028189317 _11_ MAC  --- 0 AODV 48 [0 ffffffff 3 800] [energy 0.499308] ------- [3:255 -1:255 29 0] [0x2 2 1 [7 0] [0 4]] (REQUEST)
r 1.028189419 _0_ MAC  --- 0 AODV 48 [0 ffffffff 3 800] [energy 0.499308] ------- [3:255 -1:255 29 0] [0x2 2 1 [7 0] [0 4]] (REQUEST)
r 1.028189426 _10_ MAC  --- 0 AODV 48 [0 ffffffff 3 800] [energy 0.499269] ------- [3:255 -1:255 29 0] [0x2 2 1 [7 0] [0 4]] (REQUEST)
r 1.028189540 _9_ MAC  --- 0 AODV 48 [0 ffffffff 3 800] [energy 0.499308] ------- [3:255 -1:255 29 0] [0x2 2 1 [7 0] [0 4]] (REQUEST)
r 1.028189644 _8_ MAC  --- 0 AODV 48 [0 ffffffff 3 800] [energy 0.499308] ------- [3:255 -1:255 29 0] [0x2 2 1 [7 0] [0 4]] (REQUEST)
s 1.028713324 _6_ MAC  --- 0 AODV 55 [0 ffffffff 6 800] [energy 0.499539] ------- [6:255 -1:255 28 0] [0x2 3 1 [7 0] [0 4]] (REQUEST)
r 1.031305659 _7_ MAC  --- 0 AODV 48 [0 ffffffff 6 800] [energy 0.499534] ------- [6:255 -1:255 28 0] [0x2 3 1 [7 0] [0 4]] (REQUEST)
r 1.031305908 _9_ MAC  --- 0 AODV 48 [0 ffffffff 6 800] [energy 0.499226] ------- [6:255 -1:255 28 0] [0x2 3 1 [7 0] [0 4]] (REQUEST)
r 1.031305939 _8_ MAC  --- 0 AODV 48 [0 ffffffff 6 800] [energy 0.499226] ------- [6:255 -1:255 28 0] [0x2 3 1 [7 0] [0 4]] (REQUEST)
s 1.032433359 _10_ MAC  --- 0 AODV 55 [0 ffffffff a 800] [energy 0.499226] ------- [10:255 -1:255 29 0] [0x2 2 1 [7 0] [0 4]] (REQUEST)
r 1.035025399 _0_ MAC  --- 0 AODV 48 [0 ffffffff a 800] [energy 0.499184] ------- [10:255 -1:255 29 0] [0x2 2 1 [7 0] [0 4]] (REQUEST)
r 1.035025482 _11_ MAC  --- 0 AODV 48 [0 ffffffff a 800] [energy 0.499184] ------- [10:255 -1:255 29 0] [0x2 2 1 [7 0] [0 4]] (REQUEST)
r 1.035025509 _1_ MAC  --- 0 AODV 48 [0 ffffffff a 800] [energy 0.499184] ------- [10:255 -1:255 29 0] [0x2 2 1 [7 0] [0 4]] (REQUEST)
r 1.035025636 _2_ MAC  --- 0 AODV 48 [0 ffffffff a 800] [energy 0.499145] ------- [10:255 -1:255 29 0] [0x2 2 1 [7 0] [0 4]] (REQUEST)
r 1.035025644 _12_ MAC  --- 0 AODV 48 [0 ffffffff a 800] [energy 0.499184] ------- [10:255 -1:255 29 0] [0x2 2 1 [7 0] [0 4]] (REQUEST)
r 1.035025742 _8_ MAC  --- 0 AODV 48 [0 ffffffff a 800] [energy 0.499145] ------- [10:255 -1:255 29 0] [0x2 2 1 [7 0] [0 4]] (REQUEST)
r 1.035025750 _3_ MAC  --- 0 AODV 48 [0 ffffffff a 800] [energy 0.499184] ------- [10:255 -1:255 29 0] [0x2 2 1 [7 0] [0 4]] (REQUEST)
r 1.035025881 _4_ MAC  --- 0 AODV 48 [0 ffffffff a 800] [energy 0.499184] ------- [10:255 -1:255 29 0] [0x2 2 1 [7 0] [0 4]] (REQUEST)
r 1.035026009 _5_ MAC  --- 0 AODV 48 [0 ffffffff a 800] [energy 0.499184] ------- [10:255 -1:255 29 0] [0x2 2 1 [7 0] [0 4]] (REQUEST)
r 1.035026029 _9_ MAC  --- 0 AODV 48 [0 ffffffff a 800] [energy 0.499145] ------- [10:255 -1:255 29 0] [0x2 2 1 [7 0] [0 4]] (REQUEST)
s 1.035503247 _2_ MAC  --- 0 AODV 55 [0 ffffffff 2 800] [energy 0.499145] ------- [2:255 -1:255 29 0] [0x2 2 1 [7 0] [0 4]] (REQUEST)
s 1.037671659 _7_ MAC  --- 0 ARP 35 [0 ffffffff 7 806] [energy 0.499449] ------- [REQUEST 7/7 0/6]
r 1.038095372 _3_ MAC  --- 0 AODV 48 [0 ffffffff 2 800] [energy 0.499074] ------- [2:255 -1:255 29 0] [0x2 2 1 [7 0] [0 4]] (REQUEST)
r 1.038095381 _1_ MAC  --- 0 AODV 48 [0 ffffffff 2 800] [energy 0.499074] ------- [2:255 -1:255 29 0] [0x2 2 1 [7 0] [0 4]] (REQUEST)
r 1.038095384 _12_ MAC  --- 0 AODV 48 [0 ffffffff 2 800] [energy 0.499074] ------- [2:255 -1:255 29 0] [0x2 2 1 [7 0] [0 4]] (REQUEST)
r 1.038095430 _11_ MAC  --- 0 AODV 48 [0 ffffffff 2 800] [energy 0.499074] ------- [2:255 -1:255 29 0] [0x2 2 1 [7 0] [0 4]] (REQUEST)
r 1.038095506 _4_ MAC  --- 0 AODV 48 [0 ffffffff 2 800] [energy 0.499074] ------- [2:255 -1:255 29 0] [0x2 2 1 [7 0] [0 4]] (REQUEST)
r 1.038095511 _0_ MAC  --- 0 AODV 48 [0 ffffffff 2 800] [energy 0.499074] ------- [2:255 -1:255 29 0] [0x2 2 1 [7 0] [0 4]] (REQUEST)
r 1.038095524 _10_ MAC  --- 0 AODV 48 [0 ffffffff 2 800] [energy 0.499074] ------- [2:255 -1:255 29 0] [0x2 2 1 [7 0] [0 4]] (REQUEST)
r 1.038095644 _5_ MAC  --- 0 AODV 48 [0 ffffffff 2 800] [energy 0.499074] ------- [2:255 -1:255 29 0] [0x2 2 1 [7 0] [0 4]] (REQUEST)
r 1.038095798 _8_ MAC  --- 0 AODV 48 [0 ffffffff 2 800] [energy 0.499036] ------- [2:255 -1:255 29 0] [0x2 2 1 [7 0] [0 4]] (REQUEST)
r 1.038095817 _9_ MAC  --- 0 AODV 48 [0 ffffffff 2 800] [energy 0.499036] ------- [2:255 -1:255 29 0] [0x2 2 1 [7 0] [0 4]] (REQUEST)
r 1.039623994 _6_ MAC  --- 0 ARP 28 [0 ffffffff 7 806] [energy 0.499357] ------- [REQUEST 7/7 0/6]
s 1.042188994 _6_ MAC  --- 0 ARP 35 [0 7 6 806] [energy 0.499357] ------- [REPLY 6/6 7/7]
s 1.043693329 _7_ MAC  --- 0 ACK 5 [0 6 7 0] [energy 0.499367] 
r 1.044045664 _6_ MAC  --- 0 ACK 5 [0 6 7 0] [energy 0.499317] 
r 1.044685329 _7_ MAC  --- 0 ARP 28 [0 7 6 806] [energy 0.499359] ------- [REPLY 6/6 7/7]
s 1.047250329 _7_ MAC  --- 0 AODV 51 [0 6 7 800] [energy 0.499359] ------- [7:255 0:255 30 6] [0x4 1 [7 4] 10.000000] (REPLY)
s 1.049266664 _6_ MAC  --- 0 ACK 5 [0 7 6 0] [energy 0.499242] 
r 1.049618999 _7_ MAC  --- 0 ACK 5 [0 7 6 0] [energy 0.499308] 
r 1.050258664 _6_ MAC  --- 0 AODV 44 [0 6 7 800] [energy 0.499236] ------- [7:255 0:255 30 6] [0x4 1 [7 4] 10.000000] (REPLY)
s 1.051568664 _6_ MAC  --- 0 ARP 35 [0 ffffffff 6 806] [energy 0.499236] ------- [REQUEST 6/6 0/9]
r 1.053520999 _7_ MAC  --- 0 ARP 28 [0 ffffffff 6 806] [energy 0.499255] ------- [REQUEST 6/6 0/9]
r 1.053521248 _9_ MAC  --- 0 ARP 28 [0 ffffffff 6 806] [energy 0.498899] ------- [REQUEST 6/6 0/9]
r 1.053521280 _8_ MAC  --- 0 ARP 28 [0 ffffffff 6 806] [energy 0.498899] ------- [REQUEST 6/6 0/9]
s 1.054486248 _9_ MAC  --- 0 ARP 35 [0 6 9 806] [energy 0.498899] ------- [REPLY 9/9 6/6]
s 1.055990831 _6_ MAC  --- 0 ACK 5 [0 9 6 0] [energy 0.499154] 
r 1.056343415 _9_ MAC  --- 0 ACK 5 [0 9 6 0] [energy 0.498859] 
r 1.056982831 _6_ MAC  --- 0 ARP 28 [0 6 9 806] [energy 0.499147] ------- [REPLY 9/9 6/6]
s 1.059227831 _6_ MAC  --- 0 AODV 51 [0 9 6 800] [energy 0.499147] ------- [7:255 0:255 29 9] [0x4 2 [7 4] 10.000000] (REPLY)
s 1.061244415 _9_ MAC  --- 0 ACK 5 [0 6 9 0] [energy 0.498783] 
r 1.061596998 _6_ MAC  --- 0 ACK 5 [0 6 9 0] [energy 0.499096] 
r 1.062236415 _9_ MAC  --- 0 AODV 44 [0 9 6 800] [energy 0.498778] ------- [7:255 0:255 29 9] [0x4 2 [7 4] 10.000000] (REPLY)
s 1.063546415 _9_ MAC  --- 0 ARP 35 [0 ffffffff 9 806] [energy 0.498778] ------- [REQUEST 9/9 0/0]
r 1.065498850 _5_ MAC  --- 0 ARP 28 [0 ffffffff 9 806] [energy 0.498824] ------- [REQUEST 9/9 0/0]
r 1.065498857 _12_ MAC  --- 0 ARP 28 [0 ffffffff 9 806] [energy 0.498824] ------- [REQUEST 9/9 0/0]
r 1.065498890 _4_ MAC  --- 0 ARP 28 [0 ffffffff 9 806] [energy 0.498824] ------- [REQUEST 9/9 0/0]
r 1.065498920 _3_ MAC  --- 0 ARP 28 [0 ffffffff 9 806] [energy 0.498824] ------- [REQUEST 9/9 0/0]
r 1.065498965 _8_ MAC  --- 0 ARP 28 [0 ffffffff 9 806] [energy 0.498762] ------- [REQUEST 9/9 0/0]
r 1.065498978 _11_ MAC  --- 0 ARP 28 [0 ffffffff 9 806] [energy 0.498824] ------- [REQUEST 9/9 0/0]
r 1.065498984 _2_ MAC  --- 0 ARP 28 [0 ffffffff 9 806] [energy 0.498824] ------- [REQUEST 9/9 0/0]
r 1.065498998 _6_ MAC  --- 0 ARP 28 [0 ffffffff 9 806] [energy 0.499042] ------- [REQUEST 9/9 0/0]
r 1.065499049 _1_ MAC  --- 0 ARP 28 [0 ffffffff 9 806] [energy 0.498824] ------- [REQUEST 9/9 0/0]
r 1.065499083 _10_ MAC  --- 0 ARP 28 [0 ffffffff 9 806] [energy 0.498824] ------- [REQUEST 9/9 0/0]
r 1.065499108 _0_ MAC  --- 0 ARP 28 [0 ffffffff 9 806] [energy 0.498824] ------- [REQUEST 9/9 0/0]
s 1.067424108 _0_ MAC  --- 0 ARP 35 [0 9 0 806] [energy 0.498824] ------- [REPLY 0/0 9/9]
s 1.068928801 _9_ MAC  --- 0 ACK 5 [0 0 9 0] [energy 0.498696] 
r 1.069281494 _0_ MAC  --- 0 ACK 5 [0 0 9 0] [energy 0.498785] 
r 1.069920801 _9_ MAC  --- 0 ARP 28 [0 9 0 806] [energy 0.498688] ------- [REPLY 0/0 9/9]
s 1.070885801 _9_ MAC  --- 0 AODV 51 [0 0 9 800] [energy 0.498688] ------- [7:255 0:255 28 0] [0x4 3 [7 4] 10.000000] (REPLY)
s 1.072902494 _0_ MAC  --- 0 ACK 5 [0 9 0 0] [energy 0.498709] 
r 1.073255187 _9_ MAC  --- 0 ACK 5 [0 9 0 0] [energy 0.498637] 
r 1.073894494 _0_ MAC  --- 0 AODV 44 [0 0 9 800] [energy 0.498703] ------- [7:255 0:255 28 0] [0x4 3 [7 4] 10.000000] (REPLY)
s 1.074584494 _0_ MAC  --- 0 tcp 67 [0 9 0 800] [energy 0.498703] ------- [0:0 7:0 30 9] [0 0] 0 0
s 1.077113187 _9_ MAC  --- 0 ACK 5 [0 0 9 0] [energy 0.498539] 
r 1.077465880 _0_ MAC  --- 0 ACK 5 [0 0 9 0] [energy 0.498641] 
r 1.078105187 _9_ MAC  --- 0 tcp 60 [0 9 0 800] [energy 0.498539] ------- [0:0 7:0 30 9] [0 0] 1 0
s 1.080075187 _9_ MAC  --- 0 tcp 67 [0 6 9 800] [energy 0.498539] ------- [0:0 7:0 29 6] [0 0] 1 0
s 1.082603770 _6_ MAC  --- 0 ACK 5 [0 9 6 0] [energy 0.498802] 
r 1.082956354 _9_ MAC  --- 0 ACK 5 [0 9 6 0] [energy 0.498477] 
r 1.083595770 _6_ MAC  --- 0 tcp 60 [0 6 9 800] [energy 0.498802] ------- [0:0 7:0 29 6] [0 0] 2 0
s 1.083965770 _6_ MAC  --- 0 tcp 67 [0 7 6 800] [energy 0.498802] ------- [0:0 7:0 28 7] [0 0] 2 0
s 1.086494105 _7_ MAC  --- 0 ACK 5 [0 6 7 0] [energy 0.498843] 
r 1.086846440 _6_ MAC  --- 0 ACK 5 [0 6 7 0] [energy 0.498739] 
r 1.087486105 _7_ MAC  --- 0 tcp 60 [0 7 6 800] [energy 0.498843] ------- [0:0 7:0 28 7] [0 0] 3 0
r 1.087511105 _7_ AGT  --- 0 tcp 60 [0 7 6 800] [energy 0.498843] ------- [0:0 7:0 28 7] [0 0] 3 0
s 1.087511105 _7_ AGT  --- 1 ack 40 [0 0 0 0] [energy 0.498843] ------- [7:0 0:0 32 0] [0 0] 0 0
s 1.088496105 _7_ MAC  --- 1 ack 67 [0 6 7 800] [energy 0.498843] ------- [7:0 0:0 30 6] [0 0] 0 0
s 1.091024440 _6_ MAC  --- 1 ACK 5 [0 7 6 0] [energy 0.498641] 
r 1.091376775 _7_ MAC  --- 1 ACK 5 [0 7 6 0] [energy 0.498781] 
r 1.092016440 _6_ MAC  --- 1 ack 60 [0 6 7 800] [energy 0.498641] ------- [7:0 0:0 30 6] [0 0] 1 0
s 1.093986440 _6_ MAC  --- 1 ack 67 [0 9 6 800] [energy 0.498641] ------- [7:0 0:0 29 9] [0 0] 1 0
s 1.096515024 _9_ MAC  --- 1 ACK 5 [0 6 9 0] [energy 0.498261] 
r 1.096867607 _6_ MAC  --- 1 ACK 5 [0 6 9 0] [energy 0.498579] 
r 1.097507024 _9_ MAC  --- 1 ack 60 [0 9 6 800] [energy 0.498261] ------- [7:0 0:0 29 9] [0 0] 2 0
s 1.098517024 _9_ MAC  --- 1 ack 67 [0 0 9 800] [energy 0.498261] ------- [7:0 0:0 28 0] [0 0] 2 0
s 1.101045716 _0_ MAC  --- 1 ACK 5 [0 9 0 0] [energy 0.498308] 
r 1.101398408 _9_ MAC  --- 1 ACK 5 [0 9 0 0] [energy 0.498199] 
r 1.102037716 _0_ MAC  --- 1 ack 60 [0 0 9 800] [energy 0.498308] ------- [7:0 0:0 28 0] [0 0] 3 0
r 1.102062716 _0_ AGT  --- 1 ack 60 [0 0 9 800] [energy 0.498308] ------- [7:0 0:0 28 0] [0 0] 3 0
s 1.102062716 _0_ AGT  --- 2 tcp 592 [0 0 0 0] [energy 0.498308] ------- [0:0 7:0 32 0] [1 0] 0 0
s 1.102062716 _0_ AGT  --- 3 tcp 592 [0 0 0 0] [energy 0.498308] ------- [0:0 7:0 32 0] [2 0] 0 0
s 1.103367716 _0_ MAC  --- 2 tcp 107 [0 9 0 800] [energy 0.498308] ------- [0:0 7:0 30 9] [1 0] 0 0
s 1.107176408 _9_ MAC  --- 2 ACK 5 [0 0 9 0] [energy 0.498045] 
r 1.107529100 _0_ MAC  --- 2 ACK 5 [0 0 9 0] [energy 0.498218] 
r 1.108168408 _9_ MAC  --- 2 tcp 100 [0 9 0 800] [energy 0.498045] ------- [0:0 7:0 30 9] [1 0] 1 0
s 1.108169100 _0_ MAC  --- 3 tcp 107 [0 9 0 800] [energy 0.498218] ------- [0:0 7:0 30 9] [2 0] 0 0
s 1.111977791 _9_ MAC  --- 3 ACK 5 [0 0 9 0] [energy 0.497891] 
r 1.112330483 _0_ MAC  --- 3 ACK 5 [0 0 9 0] [energy 0.498127] 
r 1.112969791 _9_ MAC  --- 3 tcp 100 [0 9 0 800] [energy 0.497891] ------- [0:0 7:0 30 9] [2 0] 1 0
s 1.114249791 _9_ MAC  --- 2 tcp 107 [0 6 9 800] [energy 0.497891] ------- [0:0 7:0 29 6] [1 0] 1 0
s 1.118058375 _6_ MAC  --- 2 ACK 5 [0 9 6 0] [energy 0.498193] 
r 1.118410958 _9_ MAC  --- 2 ACK 5 [0 9 6 0] [energy 0.497800] 
r 1.119050375 _6_ MAC  --- 2 tcp 100 [0 6 9 800] [energy 0.498193] ------- [0:0 7:0 29 6] [1 0] 2 0
s 1.120970958 _9_ MAC  --- 3 tcp 107 [0 6 9 800] [energy 0.497800] ------- [0:0 7:0 29 6] [2 0] 1 0
s 1.124779542 _6_ MAC  --- 3 ACK 5 [0 9 6 0] [energy 0.498039] 
r 1.125132125 _9_ MAC  --- 3 ACK 5 [0 9 6 0] [energy 0.497710] 
r 1.125771542 _6_ MAC  --- 3 tcp 100 [0 6 9 800] [energy 0.498039] ------- [0:0 7:0 29 6] [2 0] 2 0
s 1.127691542 _6_ MAC  --- 2 tcp 107 [0 7 6 800] [energy 0.498039] ------- [0:0 7:0 28 7] [1 0] 2 0
s 1.131499877 _7_ MAC  --- 2 ACK 5 [0 6 7 0] [energy 0.498162] 
r 1.131852212 _6_ MAC  --- 2 ACK 5 [0 6 7 0] [energy 0.497948] 
r 1.132491877 _7_ MAC  --- 2 tcp 100 [0 7 6 800] [energy 0.498162] ------- [0:0 7:0 28 7] [1 0] 3 0
r 1.132516877 _7_ AGT  --- 2 tcp 100 [0 7 6 800] [energy 0.498162] ------- [0:0 7:0 28 7] [1 0] 3 0
s 1.132516877 _7_ AGT  --- 4 ack 40 [0 0 0 0] [energy 0.498162] ------- [7:0 0:0 32 0] [1 0] 0 0
s 1.132812212 _6_ MAC  --- 3 tcp 107 [0 7 6 800] [energy 0.497948] ------- [0:0 7:0 28 7] [2 0] 2 0
s 1.132861877 _7_ MAC  --- 4 ack 67 [0 6 7 800] [energy 0.498083] ------- [7:0 0:0 30 6] [1 0] 0 0
s 1.137661877 _7_ MAC  --- 4 ack 67 [0 6 7 800] [energy 0.498083] ------- [7:0 0:0 30 6] [1 0] 0 0
s 1.140190212 _6_ MAC  --- 4 ACK 5 [0 7 6 0] [energy 0.497771] 
r 1.140542547 _7_ MAC  --- 4 ACK 5 [0 7 6 0] [energy 0.498020] 
r 1.141182212 _6_ MAC  --- 4 ack 60 [0 6 7 800] [energy 0.497771] ------- [7:0 0:0 30 6] [1 0] 1 0
s 1.142462212 _6_ MAC  --- 3 tcp 107 [0 7 6 800] [energy 0.497771] ------- [0:0 7:0 28 7] [2 0] 2 0
s 1.146270547 _7_ MAC  --- 3 ACK 5 [0 6 7 0] [energy 0.497866] 
r 1.146622882 _6_ MAC  --- 3 ACK 5 [0 6 7 0] [energy 0.497681] 
r 1.147262547 _7_ MAC  --- 3 tcp 100 [0 7 6 800] [energy 0.497866] ------- [0:0 7:0 28 7] [2 0] 3 0
r 1.147287547 _7_ AGT  --- 3 tcp 100 [0 7 6 800] [energy 0.497866] ------- [0:0 7:0 28 7] [2 0] 3 0
s 1.147287547 _7_ AGT  --- 5 ack 40 [0 0 0 0] [energy 0.497866] ------- [7:0 0:0 32 0] [2 0] 0 0
s 1.147582882 _6_ MAC  --- 4 ack 67 [0 9 6 800] [energy 0.497681] ------- [7:0 0:0 29 9] [1 0] 1 0
s 1.150111465 _9_ MAC  --- 4 ACK 5 [0 6 9 0] [energy 0.497301] 
r 1.150464049 _6_ MAC  --- 4 ACK 5 [0 6 9 0] [energy 0.497619] 
r 1.151103465 _9_ MAC  --- 4 ack 60 [0 9 6 800] [energy 0.497301] ------- [7:0 0:0 29 9] [1 0] 2 0
s 1.151920547 _7_ MAC  --- 5 ack 67 [0 6 7 800] [energy 0.497808] ------- [7:0 0:0 30 6] [2 0] 0 0
s 1.154448882 _6_ MAC  --- 5 ACK 5 [0 7 6 0] [energy 0.497521] 
r 1.154801217 _7_ MAC  --- 5 ACK 5 [0 7 6 0] [energy 0.497745] 
r 1.155440882 _6_ MAC  --- 5 ack 60 [0 6 7 800] [energy 0.497521] ------- [7:0 0:0 30 6] [2 0] 1 0
s 1.158050882 _6_ MAC  --- 5 ack 67 [0 9 6 800] [energy 0.497521] ------- [7:0 0:0 29 9] [2 0] 1 0
s 1.160579465 _9_ MAC  --- 5 ACK 5 [0 6 9 0] [energy 0.497144] 
r 1.160932049 _6_ MAC  --- 5 ACK 5 [0 6 9 0] [energy 0.497458] 
r 1.161571465 _9_ MAC  --- 5 ack 60 [0 9 6 800] [energy 0.497144] ------- [7:0 0:0 29 9] [2 0] 2 0
s 1.161891465 _9_ MAC  --- 4 ack 67 [0 0 9 800] [energy 0.497144] ------- [7:0 0:0 28 0] [1 0] 2 0
s 1.164420155 _0_ MAC  --- 4 ACK 5 [0 9 0 0] [energy 0.497368] 
r 1.164772845 _9_ MAC  --- 4 ACK 5 [0 9 0 0] [energy 0.497082] 
r 1.165412155 _0_ MAC  --- 4 ack 60 [0 0 9 800] [energy 0.497368] ------- [7:0 0:0 28 0] [1 0] 3 0
r 1.165437155 _0_ AGT  --- 4 ack 60 [0 0 9 800] [energy 0.497368] ------- [7:0 0:0 28 0] [1 0] 3 0
s 1.165437155 _0_ AGT  --- 6 tcp 592 [0 0 0 0] [energy 0.497368] ------- [0:0 7:0 32 0] [3 0] 0 0
s 1.165437155 _0_ AGT  --- 7 tcp 592 [0 0 0 0] [energy 0.497368] ------- [0:0 7:0 32 0] [4 0] 0 0
s 1.166052845 _9_ MAC  --- 5 ack 67 [0 0 9 800] [energy 0.497082] ------- [7:0 0:0 28 0] [2 0] 2 0
s 1.166102155 _0_ MAC  --- 6 tcp 107 [0 9 0 800] [energy 0.497317] ------- [0:0 7:0 30 9] [3 0] 0 0
s 1.171492845 _9_ MAC  --- 5 ack 67 [0 0 9 800] [energy 0.496994] ------- [7:0 0:0 28 0] [2 0] 2 0
s 1.174021535 _0_ MAC  --- 5 ACK 5 [0 9 0 0] [energy 0.497182] 
r 1.174374225 _9_ MAC  --- 5 ACK 5 [0 9 0 0] [energy 0.496931] 
r 1.175013535 _0_ MAC  --- 5 ack 60 [0 0 9 800] [energy 0.497182] ------- [7:0 0:0 28 0] [2 0] 3 0
r 1.175038535 _0_ AGT  --- 5 ack 60 [0 0 9 800] [energy 0.497182] ------- [7:0 0:0 28 0] [2 0] 3 0
s 1.175038535 _0_ AGT  --- 8 tcp 592 [0 0 0 0] [energy 0.497182] ------- [0:0 7:0 32 0] [5 0] 0 0
s 1.175038535 _0_ AGT  --- 9 tcp 592 [0 0 0 0] [energy 0.497182] ------- [0:0 7:0 32 0] [6 0] 0 0
s 1.176293535 _0_ MAC  --- 6 tcp 107 [0 9 0 800] [energy 0.497182] ------- [0:0 7:0 30 9] [3 0] 0 0
s 1.180102225 _9_ MAC  --- 6 ACK 5 [0 0 9 0] [energy 0.496777] 
r 1.180454914 _0_ MAC  --- 6 ACK 5 [0 0 9 0] [energy 0.497092] 
r 1.181094225 _9_ MAC  --- 6 tcp 100 [0 9 0 800] [energy 0.496777] ------- [0:0 7:0 30 9] [3 0] 1 0
s 1.181414914 _0_ MAC  --- 7 tcp 107 [0 9 0 800] [energy 0.497092] ------- [0:0 7:0 30 9] [4 0] 0 0
s 1.181464225 _9_ MAC  --- 6 tcp 107 [0 6 9 800] [energy 0.496698] ------- [0:0 7:0 29 6] [3 0] 1 0
D 1.185080808 _6_ MAC  LQI 6 tcp 107 [0 6 9 800] [energy 0.497004] ------- [0:0 7:0 29 6] [3 0] 1 0
s 1.186214914 _0_ MAC  --- 7 tcp 107 [0 9 0 800] [energy 0.497004] ------- [0:0 7:0 30 9] [4 0] 0 0
s 1.190023603 _9_ MAC  --- 7 ACK 5 [0 0 9 0] [energy 0.496536] 
r 1.190376293 _0_ MAC  --- 7 ACK 5 [0 0 9 0] [energy 0.496914] 
r 1.191015603 _9_ MAC  --- 7 tcp 100 [0 9 0 800] [energy 0.496536] ------- [0:0 7:0 30 9] [4 0] 1 0