n -t * -s 0  -x 485.52529900000002 -y 12.719421000000001 -Z 0 -z 10.000000  -v circle -c green
n -t * -s 1  -x 522.21820100000002 -y 0 -Z 0 -z 10.000000  -v circle -c green
n -t * -s 2  -x 562.02062999999998 -y -5.6574669999999996 -Z 0 -z 10.000000  -v circle -c green
n -t * -s 3  -x 599.34362799999997 -y -1.983274 -Z 0 -z 10.000000  -v circle -c green
n -t * -s 4  -x 639.53118900000004 -y -1.4738929999999999 -Z 0 -z 10.000000  -v circle -c green
n -t * -s 5  -x 679.70538299999998 -y 13.536232999999999 -Z 0 -z 10.000000  -v circle -c green
n -t * -s 6  -x 578.09277299999997 -y 300.21606400000002 -Z 0 -z 10.000000  -v circle -c green
n -t * -s 7  -x 578.09277299999997 -y 400.731674 -Z 0 -z 10.000000  -v circle -c green
n -t * -s 8  -x 485.215576 -y 140.731674 -Z 0 -z 10.000000  -v circle -c green
n -t * -s 9  -x 650.21557600000006 -y 140.731674 -Z 0 -z 10.000000  -v circle -c green
n -t * -s 10  -x 485.215576 -y 24.731674000000002 -Z 0 -z 10.000000  -v circle -c green
n -t * -s 11  -x 522.21557600000006 -y 30.731674000000002 -Z 0 -z 10.000000  -v circle -c green
n -t * -s 12  -x 570.21557600000006 -y 34.731673999999998 -Z 0 -z 10.000000  -v circle -c green
V -t * -v 1.0a5 -a 0
W -t * -x 1500 -y 1500
A -t * -n 1 -p 0 -o 0xffffffff -c 31 -a 1
A -t * -h 1 -m 2147483647 -s 0
n -t 0 -s 0 -S DLABEL -l "L_U_Node" -L ""
n -t 0 -s 0 -S COLOR -c RED -o black -i RED -I black
n -t 0 -s 10 -S DLABEL -l "L_U_Node" -L ""
n -t 0 -s 10 -S COLOR -c RED -o black -i RED -I black
n -t 0 -s 11 -S DLABEL -l "L_U_Node" -L ""
n -t 0 -s 11 -S COLOR -c RED -o black -i RED -I black
n -t 0 -s 12 -S DLABEL -l "L_U_Node" -L ""
n -t 0 -s 12 -S COLOR -c RED -o black -i RED -I black
n -t 0 -s 1 -S DLABEL -l "L_U_Node" -L ""
n -t 0 -s 1 -S COLOR -c RED -o black -i RED -I black
n -t 0 -s 2 -S DLABEL -l "L_U_Node" -L ""
n -t 0 -s 2 -S COLOR -c RED -o black -i RED -I black
n -t 0 -s 3 -S DLABEL -l "L_U_Node" -L ""
n -t 0 -s 3 -S COLOR -c RED -o black -i RED -I black
n -t 0 -s 4 -S DLABEL -l "L_U_Node" -L ""
n -t 0 -s 4 -S COLOR -c RED -o black -i RED -I black
n -t 0 -s 5 -S DLABEL -l "L_U_Node" -L ""
n -t 0 -s 5 -S COLOR -c RED -o black -i RED -I black
n -t 0 -s 6 -S DLABEL -l "Source" -L ""
n -t 0 -s 6 -S COLOR -c pink -o black -i pink -I black
n -t 0 -s 7 -S DLABEL -l "Repeater" -L ""
n -t 0 -s 7 -S COLOR -c blue -o black -i blue -I black
n -t 0 -s 8 -S DLABEL -l "U_U_1" -L ""
n -t 0 -s 8 -S COLOR -c gold -o black -i gold -I black
n -t 0 -s 9 -S DLABEL -l "U_U_2" -L ""
n -t 0 -s 9 -S COLOR -c gold -o black -i gold -I black
n -t 1.000000 -s 0 -x 485.525299 -y 12.719421 -U -9.430694 -V 28.479150 -T 3.766987
n -t 1.000000 -s 10 -x 485.215576 -y 24.731674 -U -0.085923 -V 29.999877 -T 2.508954
n -t 1.000000 -s 11 -x 522.215576 -y 30.731674 -U -21.028274 -V 21.396534 -T 5.574189
n -t 1 -s 0 -S COLOR -c green -o RED -i green -I RED
+ -t 1.000000000 -s 0 -d -1 -p tcp -e 40 -c 2 -a 0 -i 0 -k AGT 
- -t 1.000000000 -s 0 -d -1 -p tcp -e 40 -c 2 -a 0 -i 0 -k AGT
h -t 1.000000000 -s 0 -d -1 -p tcp -e 40 -c 2 -a 0 -i 0 -k AGT
+ -t 1.001305000 -s 0 -d -1 -p AODV -e 55 -c 2 -a 0 -i 0 -k MAC 
- -t 1.001305000 -s 0 -d -1 -p AODV -e 55 -c 2 -a 0 -i 0 -k MAC
h -t 1.001305000 -s 0 -d -1 -p AODV -e 55 -c 2 -a 0 -i 0 -k MAC
r -t 1.003897040 -s 10 -d -1 -p AODV -e 48 -c 2 -a 0 -i 0 -k MAC
r -t 1.003897130 -s 1 -d -1 -p AODV -e 48 -c 2 -a 0 -i 0 -k MAC
r -t 1.003897136 -s 11 -d -1 -p AODV -e 48 -c 2 -a 0 -i 0 -k MAC
r -t 1.003897262 -s 2 -d -1 -p AODV -e 48 -c 2 -a 0 -i 0 -k MAC
r -t 1.003897292 -s 12 -d -1 -p AODV -e 48 -c 2 -a 0 -i 0 -k MAC
r -t 1.003897383 -s 3 -d -1 -p AODV -e 48 -c 2 -a 0 -i 0 -k MAC
r -t 1.003897427 -s 8 -d -1 -p AODV -e 48 -c 2 -a 0 -i 0 -k MAC
r -t 1.003897516 -s 4 -d -1 -p AODV -e 48 -c 2 -a 0 -i 0 -k MAC
r -t 1.003897647 -s 5 -d -1 -p AODV -e 48 -c 2 -a 0 -i 0 -k MAC
r -t 1.003897695 -s 9 -d -1 -p AODV -e 48 -c 2 -a 0 -i 0 -k MAC
+ -t 1.005708008 -s 9 -d -1 -p AODV -e 55 -c 2 -a 0 -i 0 -k MAC 
- -t 1.005708008 -s 9 -d -1 -p AODV -e 55 -c 2 -a 0 -i 0 -k MAC
h -t 1.005708008 -s 9 -d -1 -p AODV -e 55 -c 2 -a 0 -i 0 -k MAC
r -t 1.008300444 -s 5 -d -1 -p AODV -e 48 -c 2 -a 0 -i 0 -k MAC
r -t 1.008300451 -s 12 -d -1 -p AODV -e 48 -c 2 -a 0 -i 0 -k MAC
r -t 1.008300484 -s 4 -d -1 -p AODV -e 48 -c 2 -a 0 -i 0 -k MAC
r -t 1.008300513 -s 3 -d -1 -p AODV -e 48 -c 2 -a 0 -i 0 -k MAC
r -t 1.008300558 -s 8 -d -1 -p AODV -e 48 -c 2 -a 0 -i 0 -k MAC
r -t 1.008300571 -s 11 -d -1 -p AODV -e 48 -c 2 -a 0 -i 0 -k MAC
r -t 1.008300578 -s 2 -d -1 -p AODV -e 48 -c 2 -a 0 -i 0 -k MAC
r -t 1.008300592 -s 6 -d -1 -p AODV -e 48 -c 2 -a 0 -i 0 -k MAC
r -t 1.008300643 -s 1 -d -1 -p AODV -e 48 -c 2 -a 0 -i 0 -k MAC
r -t 1.008300680 -s 10 -d -1 -p AODV -e 48 -c 2 -a 0 -i 0 -k MAC
r -t 1.008300704 -s 0 -d -1 -p AODV -e 48 -c 2 -a 0 -i 0 -k MAC
+ -t 1.009602327 -s 11 -d -1 -p AODV -e 55 -c 2 -a 0 -i 0 -k MAC 
- -t 1.009602327 -s 11 -d -1 -p AODV -e 55 -c 2 -a 0 -i 0 -k MAC
h -t 1.009602327 -s 11 -d -1 -p AODV -e 55 -c 2 -a 0 -i 0 -k MAC
r -t 1.012194430 -s 1 -d -1 -p AODV -e 48 -c 2 -a 0 -i 0 -k MAC
r -t 1.012194451 -s 10 -d -1 -p AODV -e 48 -c 2 -a 0 -i 0 -k MAC
r -t 1.012194463 -s 0 -d -1 -p AODV -e 48 -c 2 -a 0 -i 0 -k MAC
r -t 1.012194488 -s 12 -d -1 -p AODV -e 48 -c 2 -a 0 -i 0 -k MAC
r -t 1.012194508 -s 2 -d -1 -p AODV -e 48 -c 2 -a 0 -i 0 -k MAC
r -t 1.012194607 -s 3 -d -1 -p AODV -e 48 -c 2 -a 0 -i 0 -k MAC
r -t 1.012194713 -s 8 -d -1 -p AODV -e 48 -c 2 -a 0 -i 0 -k MAC
r -t 1.012194733 -s 4 -d -1 -p AODV -e 48 -c 2 -a 0 -i 0 -k MAC
r -t 1.012194856 -s 5 -d -1 -p AODV -e 48 -c 2 -a 0 -i 0 -k MAC
r -t 1.012194890 -s 9 -d -1 -p AODV -e 48 -c 2 -a 0 -i 0 -k MAC
+ -t 1.012917367 -s 12 -d -1 -p AODV -e 55 -c 2 -a 0 -i 0 -k MAC 
- -t 1.012917367 -s 12 -d -1 -p AODV -e 55 -c 2 -a 0 -i 0 -k MAC
h -t 1.012917367 -s 12 -d -1 -p AODV -e 55 -c 2 -a 0 -i 0 -k MAC
+ -t 1.015421126 -s 5 -d -1 -p AODV -e 55 -c 2 -a 0 -i 0 -k MAC 
- -t 1.015421126 -s 5 -d -1 -p AODV -e 55 -c 2 -a 0 -i 0 -k MAC
h -t 1.015421126 -s 5 -d -1 -p AODV -e 55 -c 2 -a 0 -i 0 -k MAC
r -t 1.015509504 -s 2 -d -1 -p AODV -e 48 -c 2 -a 0 -i 0 -k MAC
r -t 1.015509523 -s 3 -d -1 -p AODV -e 48 -c 2 -a 0 -i 0 -k MAC
r -t 1.015509528 -s 11 -d -1 -p AODV -e 48 -c 2 -a 0 -i 0 -k MAC
r -t 1.015509564 -s 1 -d -1 -p AODV -e 48 -c 2 -a 0 -i 0 -k MAC
r -t 1.015509628 -s 4 -d -1 -p AODV -e 48 -c 2 -a 0 -i 0 -k MAC
r -t 1.015509652 -s 10 -d -1 -p AODV -e 48 -c 2 -a 0 -i 0 -k MAC
r -t 1.015509659 -s 0 -d -1 -p AODV -e 48 -c 2 -a 0 -i 0 -k MAC
r -t 1.015509739 -s 5 -d -1 -p AODV -e 48 -c 2 -a 0 -i 0 -k MAC
r -t 1.015509810 -s 9 -d -1 -p AODV -e 48 -c 2 -a 0 -i 0 -k MAC
r -t 1.015509820 -s 8 -d -1 -p AODV -e 48 -c 2 -a 0 -i 0 -k MAC
+ -t 1.017732584 -s 1 -d -1 -p AODV -e 55 -c 2 -a 0 -i 0 -k MAC 
- -t 1.017732584 -s 1 -d -1 -p AODV -e 55 -c 2 -a 0 -i 0 -k MAC
h -t 1.017732584 -s 1 -d -1 -p AODV -e 55 -c 2 -a 0 -i 0 -k MAC
r -t 1.018013268 -s 4 -d -1 -p AODV -e 48 -c 2 -a 0 -i 0 -k MAC
r -t 1.018013398 -s 3 -d -1 -p AODV -e 48 -c 2 -a 0 -i 0 -k MAC
r -t 1.018013497 -s 12 -d -1 -p AODV -e 48 -c 2 -a 0 -i 0 -k MAC
r -t 1.018013523 -s 2 -d -1 -p AODV -e 48 -c 2 -a 0 -i 0 -k MAC
r -t 1.018013561 -s 9 -d -1 -p AODV -e 48 -c 2 -a 0 -i 0 -k MAC
r -t 1.018013652 -s 1 -d -1 -p AODV -e 48 -c 2 -a 0 -i 0 -k MAC
r -t 1.018013655 -s 11 -d -1 -p AODV -e 48 -c 2 -a 0 -i 0 -k MAC
r -t 1.018013773 -s 0 -d -1 -p AODV -e 48 -c 2 -a 0 -i 0 -k MAC
r -t 1.018013775 -s 10 -d -1 -p AODV -e 48 -c 2 -a 0 -i 0 -k MAC
r -t 1.018013900 -s 8 -d -1 -p AODV -e 48 -c 2 -a 0 -i 0 -k MAC
+ -t 1.020066165 -s 4 -d -1 -p AODV -e 55 -c 2 -a 0 -i 0 -k MAC 
- -t 1.020066165 -s 4 -d -1 -p AODV -e 55 -c 2 -a 0 -i 0 -k MAC
h -t 1.020066165 -s 4 -d -1 -p AODV -e 55 -c 2 -a 0 -i 0 -k MAC
r -t 1.020324688 -s 11 -d -1 -p AODV -e 48 -c 2 -a 0 -i 0 -k MAC
r -t 1.020324715 -s 0 -d -1 -p AODV -e 48 -c 2 -a 0 -i 0 -k MAC
r -t 1.020324718 -s 2 -d -1 -p AODV -e 48 -c 2 -a 0 -i 0 -k MAC
r -t 1.020324734 -s 10 -d -1 -p AODV -e 48 -c 2 -a 0 -i 0 -k MAC
r -t 1.020324782 -s 12 -d -1 -p AODV -e 48 -c 2 -a 0 -i 0 -k MAC
r -t 1.020324841 -s 3 -d -1 -p AODV -e 48 -c 2 -a 0 -i 0 -k MAC
r -t 1.020324975 -s 4 -d -1 -p AODV -e 48 -c 2 -a 0 -i 0 -k MAC
r -t 1.020325069 -s 8 -d -1 -p AODV -e 48 -c 2 -a 0 -i 0 -k MAC
r -t 1.020325111 -s 5 -d -1 -p AODV -e 48 -c 2 -a 0 -i 0 -k MAC
r -t 1.020325218 -s 9 -d -1 -p AODV -e 48 -c 2 -a 0 -i 0 -k MAC
r -t 1.022658299 -s 3 -d -1 -p AODV -e 48 -c 2 -a 0 -i 0 -k MAC
r -t 1.022658308 -s 5 -d -1 -p AODV -e 48 -c 2 -a 0 -i 0 -k MAC
r -t 1.022658424 -s 2 -d -1 -p AODV -e 48 -c 2 -a 0 -i 0 -k MAC
r -t 1.022658426 -s 12 -d -1 -p AODV -e 48 -c 2 -a 0 -i 0 -k MAC
r -t 1.022658556 -s 1 -d -1 -p AODV -e 48 -c 2 -a 0 -i 0 -k MAC
r -t 1.022658572 -s 11 -d -1 -p AODV -e 48 -c 2 -a 0 -i 0 -k MAC
r -t 1.022658640 -s 9 -d -1 -p AODV -e 48 -c 2 -a 0 -i 0 -k MAC
r -t 1.022658681 -s 0 -d -1 -p AODV -e 48 -c 2 -a 0 -i 0 -k MAC
r -t 1.022658687 -s 10 -d -1 -p AODV -e 48 -c 2 -a 0 -i 0 -k MAC
r -t 1.022658865 -s 8 -d -1 -p AODV -e 48 -c 2 -a 0 -i 0 -k MAC
+ -t 1.022677862 -s 8 -d -1 -p AODV -e 55 -c 2 -a 0 -i 0 -k MAC 
- -t 1.022677862 -s 8 -d -1 -p AODV -e 55 -c 2 -a 0 -i 0 -k MAC
h -t 1.022677862 -s 8 -d -1 -p AODV -e 55 -c 2 -a 0 -i 0 -k MAC
r -t 1.025270246 -s 10 -d -1 -p AODV -e 48 -c 2 -a 0 -i 0 -k MAC
r -t 1.025270247 -s 11 -d -1 -p AODV -e 48 -c 2 -a 0 -i 0 -k MAC
r -t 1.025270287 -s 0 -d -1 -p AODV -e 48 -c 2 -a 0 -i 0 -k MAC
r -t 1.025270315 -s 12 -d -1 -p AODV -e 48 -c 2 -a 0 -i 0 -k MAC
r -t 1.025270347 -s 1 -d -1 -p AODV -e 48 -c 2 -a 0 -i 0 -k MAC
r -t 1.025270412 -s 9 -d -1 -p AODV -e 48 -c 2 -a 0 -i 0 -k MAC
r -t 1.025270413 -s 2 -d -1 -p AODV -e 48 -c 2 -a 0 -i 0 -k MAC
r -t 1.025270471 -s 3 -d -1 -p AODV -e 48 -c 2 -a 0 -i 0 -k MAC
r -t 1.025270477 -s 6 -d -1 -p AODV -e 48 -c 2 -a 0 -i 0 -k MAC
r -t 1.025270562 -s 4 -d -1 -p AODV -e 48 -c 2 -a 0 -i 0 -k MAC
r -t 1.025270637 -s 5 -d -1 -p AODV -e 48 -c 2 -a 0 -i 0 -k MAC
+ -t 1.025597035 -s 3 -d -1 -p AODV -e 55 -c 2 -a 0 -i 0 -k MAC 
- -t 1.025597035 -s 3 -d -1 -p AODV -e 55 -c 2 -a 0 -i 0 -k MAC
h -t 1.025597035 -s 3 -d -1 -p AODV -e 55 -c 2 -a 0 -i 0 -k MAC
r -t 1.028189160 -s 2 -d -1 -p AODV -e 48 -c 2 -a 0 -i 0 -k MAC
r -t 1.028189169 -s 4 -d -1 -p AODV -e 48 -c 2 -a 0 -i 0 -k MAC
r -t 1.028189191 -s 12 -d -1 -p AODV -e 48 -c 2 -a 0 -i 0 -k MAC
r -t 1.028189292 -s 1 -d -1 -p AODV -e 48 -c 2 -a 0 -i 0 -k MAC
r -t 1.028189308 -s 5 -d -1 -p AODV -e 48 -c 2 -a 0 -i 0 -k MAC
r -t 1.028189317 -s 11 -d -1 -p AODV -e 48 -c 2 -a 0 -i 0 -k MAC
r -t 1.028189419 -s 0 -d -1 -p AODV -e 48 -c 2 -a 0 -i 0 -k MAC
r -t 1.028189426 -s 10 -d -1 -p AODV -e 48 -c 2 -a 0 -i 0 -k MAC
r -t 1.028189540 -s 9 -d -1 -p AODV -e 48 -c 2 -a 0 -i 0 -k MAC
r -t 1.028189644 -s 8 -d -1 -p AODV -e 48 -c 2 -a 0 -i 0 -k MAC
+ -t 1.028713324 -s 6 -d -1 -p AODV -e 55 -c 2 -a 0 -i 0 -k MAC 
- -t 1.028713324 -s 6 -d -1 -p AODV -e 55 -c 2 -a 0 -i 0 -k MAC
h -t 1.028713324 -s 6 -d -1 -p AODV -e 55 -c 2 -a 0 -i 0 -k MAC
r -t 1.031305659 -s 7 -d -1 -p AODV -e 48 -c 2 -a 0 -i 0 -k MAC
r -t 1.031305908 -s 9 -d -1 -p AODV -e 48 -c 2 -a 0 -i 0 -k MAC
r -t 1.031305939 -s 8 -d -1 -p AODV -e 48 -c 2 -a 0 -i 0 -k MAC
+ -t 1.032433359 -s 10 -d -1 -p AODV -e 55 -c 2 -a 0 -i 0 -k MAC 
- -t 1.032433359 -s 10 -d -1 -p AODV -e 55 -c 2 -a 0 -i 0 -k MAC
h -t 1.032433359 -s 10 -d -1 -p AODV -e 55 -c 2 -a 0 -i 0 -k MAC
r -t 1.035025399 -s 0 -d -1 -p AODV -e 48 -c 2 -a 0 -i 0 -k MAC
r -t 1.035025482 -s 11 -d -1 -p AODV -e 48 -c 2 -a 0 -i 0 -k MAC
r -t 1.035025509 -s 1 -d -1 -p AODV -e 48 -c 2 -a 0 -i 0 -k MAC
r -t 1.035025636 -s 2 -d -1 -p AODV -e 48 -c 2 -a 0 -i 0 -k MAC
r -t 1.035025644 -s 12 -d -1 -p AODV -e 48 -c 2 -a 0 -i 0 -k MAC
r -t 1.035025742 -s 8 -d -1 -p AODV -e 48 -c 2 -a 0 -i 0 -k MAC
r -t 1.035025750 -s 3 -d -1 -p AODV -e 48 -c 2 -a 0 -i 0 -k MAC
r -t 1.035025881 -s 4 -d -1 -p AODV -e 48 -c 2 -a 0 -i 0 -k MAC
r -t 1.035026009 -s 5 -d -1 -p AODV -e 48 -c 2 -a 0 -i 0 -k MAC
r -t 1.035026029 -s 9 -d -1 -p AODV -e 48 -c 2 -a 0 -i 0 -k MAC
+ -t 1.035503247 -s 2 -d -1 -p AODV -e 55 -c 2 -a 0 -i 0 -k MAC 
- -t 1.035503247 -s 2 -d -1 -p AODV -e 55 -c 2 -a 0 -i 0 -k MAC
h -t 1.035503247 -s 2 -d -1 -p AODV -e 55 -c 2 -a 0 -i 0 -k MAC
+ -t 1.037671659 -s 7 -d -1 -p ARP -e 35 -c 2 -a 0 -i 0 -k MAC 
- -t 1.037671659 -s 7 -d -1 -p ARP -e 35 -c 2 -a 0 -i 0 -k MAC
h -t 1.037671659 -s 7 -d -1 -p ARP -e 35 -c 2 -a 0 -i 0 -k MAC
r -t 1.038095372 -s 3 -d -1 -p AODV -e 48 -c 2 -a 0 -i 0 -k MAC
r -t 1.038095381 -s 1 -d -1 -p AODV -e 48 -c 2 -a 0 -i 0 -k MAC
r -t 1.038095384 -s 12 -d -1 -p AODV -e 48 -c 2 -a 0 -i 0 -k MAC
r -t 1.038095430 -s 11 -d -1 -p AODV -e 48 -c 2 -a 0 -i 0 -k MAC
r -t 1.038095506 -s 4 -d -1 -p AODV -e 48 -c 2 -a 0 -i 0 -k MAC
r -t 1.038095511 -s 0 -d -1 -p AODV -e 48 -c 2 -a 0 -i 0 -k MAC
r -t 1.038095524 -s 10 -d -1 -p AODV -e 48 -c 2 -a 0 -i 0 -k MAC
r -t 1.038095644 -s 5 -d -1 -p AODV -e 48 -c 2 -a 0 -i 0 -k MAC
r -t 1.038095798 -s 8 -d -1 -p AODV -e 48 -c 2 -a 0 -i 0 -k MAC
r -t 1.038095817 -s 9 -d -1 -p AODV -e 48 -c 2 -a 0 -i 0 -k MAC
r -t 1.039623994 -s 6 -d -1 -p ARP -e 28 -c 2 -a 0 -i 0 -k MAC
+ -t 1.042188994 -s 6 -d -1 -p ARP -e 35 -c 2 -a 0 -i 0 -k MAC 
- -t 1.042188994 -s 6 -d -1 -p ARP -e 35 -c 2 -a 0 -i 0 -k MAC
h -t 1.042188994 -s 6 -d -1 -p ARP -e 35 -c 2 -a 0 -i 0 -k MAC
+ -t 1.043693329 -s 7 -d 6 -p ACK -e 5 -c 2 -a 0 -i 0 -k MAC 
- -t 1.043693329 -s 7 -d 6 -p ACK -e 5 -c 2 -a 0 -i 0 -k MAC
h -t 1.043693329 -s 7 -d 6 -p ACK -e 5 -c 2 -a 0 -i 0 -k MAC
r -t 1.044045664 -s 6 -d 6 -p ACK -e 5 -c 2 -a 0 -i 0 -k MAC
r -t 1.044685329 -s 7 -d -1 -p ARP -e 28 -c 2 -a 0 -i 0 -k MAC
+ -t 1.047250329 -s 7 -d 6 -p AODV -e 51 -c 2 -a 0 -i 0 -k MAC 
- -t 1.047250329 -s 7 -d 6 -p AODV -e 51 -c 2 -a 0 -i 0 -k MAC
h -t 1.047250329 -s 7 -d 6 -p AODV -e 51 -c 2 -a 0 -i 0 -k MAC
+ -t 1.049266664 -s 6 -d 7 -p ACK -e 5 -c 2 -a 0 -i 0 -k MAC 
- -t 1.049266664 -s 6 -d 7 -p ACK -e 5 -c 2 -a 0 -i 0 -k MAC
h -t 1.049266664 -s 6 -d 7 -p ACK -e 5 -c 2 -a 0 -i 0 -k MAC
r -t 1.049618999 -s 7 -d 7 -p ACK -e 5 -c 2 -a 0 -i 0 -k MAC
r -t 1.050258664 -s 6 -d 6 -p AODV -e 44 -c 2 -a 0 -i 0 -k MAC
+ -t 1.051568664 -s 6 -d -1 -p ARP -e 35 -c 2 -a 0 -i 0 -k MAC 
- -t 1.051568664 -s 6 -d -1 -p ARP -e 35 -c 2 -a 0 -i 0 -k MAC
h -t 1.051568664 -s 6 -d -1 -p ARP -e 35 -c 2 -a 0 -i 0 -k MAC
r -t 1.053520999 -s 7 -d -1 -p ARP -e 28 -c 2 -a 0 -i 0 -k MAC
r -t 1.053521248 -s 9 -d -1 -p ARP -e 28 -c 2 -a 0 -i 0 -k MAC
r -t 1.053521280 -s 8 -d -1 -p ARP -e 28 -c 2 -a 0 -i 0 -k MAC
+ -t 1.054486248 -s 9 -d -1 -p ARP -e 35 -c 2 -a 0 -i 0 -k MAC 
- -t 1.054486248 -s 9 -d -1 -p ARP -e 35 -c 2 -a 0 -i 0 -k MAC
h -t 1.054486248 -s 9 -d -1 -p ARP -e 35 -c 2 -a 0 -i 0 -k MAC
+ -t 1.055990831 -s 6 -d 9 -p ACK -e 5 -c 2 -a 0 -i 0 -k MAC 
- -t 1.055990831 -s 6 -d 9 -p ACK -e 5 -c 2 -a 0 -i 0 -k MAC
h -t 1.055990831 -s 6 -d 9 -p ACK -e 5 -c 2 -a 0 -i 0 -k MAC
r -t 1.056343415 -s 9 -d 9 -p ACK -e 5 -c 2 -a 0 -i 0 -k MAC
r -t 1.056982831 -s 6 -d -1 -p ARP -e 28 -c 2 -a 0 -i 0 -k MAC
+ -t 1.059227831 -s 6 -d 9 -p AODV -e 51 -c 2 -a 0 -i 0 -k MAC 
- -t 1.059227831 -s 6 -d 9 -p AODV -e 51 -c 2 -a 0 -i 0 -k MAC
h -t 1.059227831 -s 6 -d 9 -p AODV -e 51 -c 2 -a 0 -i 0 -k MAC
+ -t 1.061244415 -s 9 -d 6 -p ACK -e 5 -c 2 -a 0 -i 0 -k MAC 
- -t 1.061244415 -s 9 -d 6 -p ACK -e 5 -c 2 -a 0 -i 0 -k MAC
h -t 1.061244415 -s 9 -d 6 -p ACK -e 5 -c 2 -a 0 -i 0 -k MAC
r -t 1.061596998 -s 6 -d 6 -p ACK -e 5 -c 2 -a 0 -i 0 -k MAC
r -t 1.062236415 -s 9 -d 9 -p AODV -e 44 -c 2 -a 0 -i 0 -k MAC
+ -t 1.063546415 -s 9 -d -1 -p ARP -e 35 -c 2 -a 0 -i 0 -k MAC 
- -t 1.063546415 -s 9 -d -1 -p ARP -e 35 -c 2 -a 0 -i 0 -k MAC
h -t 1.063546415 -s 9 -d -1 -p ARP -e 35 -c 2 -a 0 -i 0 -k MAC
r -t 1.065498850 -s 5 -d -1 -p ARP -e 28 -c 2 -a 0 -i 0 -k MAC
r -t 1.065498857 -s 12 -d -1 -p ARP -e 28 -c 2 -a 0 -i 0 -k MAC
r -t 1.065498890 -s 4 -d -1 -p ARP -e 28 -c 2 -a 0 -i 0 -k MAC
r -t 1.065498920 -s 3 -d -1 -p ARP -e 28 -c 2 -a 0 -i 0 -k MAC
r -t 1.065498965 -s 8 -d -1 -p ARP -e 28 -c 2 -a 0 -i 0 -k MAC
r -t 1.065498978 -s 11 -d -1 -p ARP -e 28 -c 2 -a 0 -i 0 -k MAC
r -t 1.065498984 -s 2 -d -1 -p ARP -e 28 -c 2 -a 0 -i 0 -k MAC
r -t 1.065498998 -s 6 -d -1 -p ARP -e 28 -c 2 -a 0 -i 0 -k MAC
r -t 1.065499049 -s 1 -d -1 -p ARP -e 28 -c 2 -a 0 -i 0 -k MAC
r -t 1.065499083 -s 10 -d -1 -p ARP -e 28 -c 2 -a 0 -i 0 -k MAC
r -t 1.065499108 -s 0 -d -1 -p ARP -e 28 -c 2 -a 0 -i 0 -k MAC
+ -t 1.067424108 -s 0 -d -1 -p ARP -e 35 -c 2 -a 0 -i 0 -k MAC 
- -t 1.067424108 -s 0 -d -1 -p ARP -e 35 -c 2 -a 0 -i 0 -k MAC
h -t 1.067424108 -s 0 -d -1 -p ARP -e 35 -c 2 -a 0 -i 0 -k MAC
+ -t 1.068928801 -s 9 -d 0 -p ACK -e 5 -c 2 -a 0 -i 0 -k MAC 
- -t 1.068928801 -s 9 -d 0 -p ACK -e 5 -c 2 -a 0 -i 0 -k MAC
h -t 1.068928801 -s 9 -d 0 -p ACK -e 5 -c 2 -a 0 -i 0 -k MAC
r -t 1.069281494 -s 0 -d 0 -p ACK -e 5 -c 2 -a 0 -i 0 -k MAC
r -t 1.069920801 -s 9 -d -1 -p ARP -e 28 -c 2 -a 0 -i 0 -k MAC
+ -t 1.070885801 -s 9 -d 0 -p AODV -e 51 -c 2 -a 0 -i 0 -k MAC 
- -t 1.070885801 -s 9 -d 0 -p AODV -e 51 -c 2 -a 0 -i 0 -k MAC
h -t 1.070885801 -s 9 -d 0 -p AODV -e 51 -c 2 -a 0 -i 0 -k MAC
+ -t 1.072902494 -s 0 -d 9 -p ACK -e 5 -c 2 -a 0 -i 0 -k MAC 
- -t 1.072902494 -s 0 -d 9 -p ACK -e 5 -c 2 -a 0 -i 0 -k MAC
h -t 1.072902494 -s 0 -d 9 -p ACK -e 5 -c 2 -a 0 -i 0 -k MAC
r -t 1.073255187 -s 9 -d 9 -p ACK -e 5 -c 2 -a 0 -i 0 -k MAC
r -t 1.073894494 -s 0 -d 0 -p AODV -e 44 -c 2 -a 0 -i 0 -k MAC
+ -t 1.074584494 -s 0 -d 9 -p tcp -e 67 -c 2 -a 0 -i 0 -k MAC 
- -t 1.074584494 -s 0 -d 9 -p tcp -e 67 -c 2 -a 0 -i 0 -k MAC
h -t 1.074584494 -s 0 -d 9 -p tcp -e 67 -c 2 -a 0 -i 0 -k MAC
+ -t 1.077113187 -s 9 -d 0 -p ACK -e 5 -c 2 -a 0 -i 0 -k MAC 
- -t 1.077113187 -s 9 -d 0 -p ACK -e 5 -c 2 -a 0 -i 0 -k MAC
h -t 1.077113187 -s 9 -d 0 -p ACK -e 5 -c 2 -a 0 -i 0 -k MAC
r -t 1.077465880 -s 0 -d 0 -p ACK -e 5 -c 2 -a 0 -i 0 -k MAC
r -t 1.078105187 -s 9 -d 9 -p tcp -e 60 -c 2 -a 0 -i 0 -k MAC
+ -t 1.080075187 -s 9 -d 6 -p tcp -e 67 -c 2 -a 0 -i 0 -k MAC 
- -t 1.080075187 -s 9 -d 6 -p tcp -e 67 -c 2 -a 0 -i 0 -k MAC
h -t 1.080075187 -s 9 -d 6 -p tcp -e 67 -c 2 -a 0 -i 0 -k MAC
+ -t 1.082603770 -s 6 -d 9 -p ACK -e 5 -c 2 -a 0 -i 0 -k MAC 
- -t 1.082603770 -s 6 -d 9 -p ACK -e 5 -c 2 -a 0 -i 0 -k MAC
h -t 1.082603770 -s 6 -d 9 -p ACK -e 5 -c 2 -a 0 -i 0 -k MAC
r -t 1.082956354 -s 9 -d 9 -p ACK -e 5 -c 2 -a 0 -i 0 -k MAC
r -t 1.083595770 -s 6 -d 6 -p tcp -e 60 -c 2 -a 0 -i 0 -k MAC
+ -t 1.083965770 -s 6 -d 7 -p tcp -e 67 -c 2 -a 0 -i 0 -k MAC 
- -t 1.083965770 -s 6 -d 7 -p tcp -e 67 -c 2 -a 0 -i 0 -k MAC
h -t 1.083965770 -s 6 -d 7 -p tcp -e 67 -c 2 -a 0 -i 0 -k MAC
+ -t 1.086494105 -s 7 -d 6 -p ACK -e 5 -c 2 -a 0 -i 0 -k MAC 
- -t 1.086494105 -s 7 -d 6 -p ACK -e 5 -c 2 -a 0 -i 0 -k MAC
h -t 1.086494105 -s 7 -d 6 -p ACK -e 5 -c 2 -a 0 -i 0 -k MAC
r -t 1.086846440 -s 6 -d 6 -p ACK -e 5 -c 2 -a 0 -i 0 -k MAC
r -t 1.087486105 -s 7 -d 7 -p tcp -e 60 -c 2 -a 0 -i 0 -k MAC
r -t 1.087511105 -s 7 -d 7 -p tcp -e 60 -c 2 -a 0 -i 0 -k AGT
+ -t 1.087511105 -s 7 -d -1 -p ack -e 40 -c 2 -a 0 -i 1 -k AGT 
- -t 1.087511105 -s 7 -d -1 -p ack -e 40 -c 2 -a 0 -i 1 -k AGT
h -t 1.087511105 -s 7 -d -1 -p ack -e 40 -c 2 -a 0 -i 1 -k AGT
+ -t 1.088496105 -s 7 -d 6 -p ack -e 67 -c 2 -a 0 -i 1 -k MAC 
- -t 1.088496105 -s 7 -d 6 -p ack -e 67 -c 2 -a 0 -i 1 -k MAC
h -t 1.088496105 -s 7 -d 6 -p ack -e 67 -c 2 -a 0 -i 1 -k MAC
+ -t 1.091024440 -s 6 -d 7 -p ACK -e 5 -c 2 -a 0 -i 1 -k MAC 
- -t 1.091024440 -s 6 -d 7 -p ACK -e 5 -c 2 -a 0 -i 1 -k MAC
h -t 1.091024440 -s 6 -d 7 -p ACK -e 5 -c 2 -a 0 -i 1 -k MAC
r -t 1.091376775 -s 7 -d 7 -p ACK -e 5 -c 2 -a 0 -i 1 -k MAC
r -t 1.092016440 -s 6 -d 6 -p ack -e 60 -c 2 -a 0 -i 1 -k MAC
+ -t 1.093986440 -s 6 -d 9 -p ack -e 67 -c 2 -a 0 -i 1 -k MAC 
- -t 1.093986440 -s 6 -d 9 -p ack -e 67 -c 2 -a 0 -i 1 -k MAC
h -t 1.093986440 -s 6 -d 9 -p ack -e 67 -c 2 -a 0 -i 1 -k MAC
+ -t 1.096515024 -s 9 -d 6 -p ACK -e 5 -c 2 -a 0 -i 1 -k MAC 
- -t 1.096515024 -s 9 -d 6 -p ACK -e 5 -c 2 -a 0 -i 1 -k MAC
h -t 1.096515024 -s 9 -d 6 -p ACK -e 5 -c 2 -a 0 -i 1 -k MAC
r -t 1.096867607 -s 6 -d 6 -p ACK -e 5 -c 2 -a 0 -i 1 -k MAC
r -t 1.097507024 -s 9 -d 9 -p ack -e 60 -c 2 -a 0 -i 1 -k MAC
+ -t 1.098517024 -s 9 -d 0 -p ack -e 67 -c 2 -a 0 -i 1 -k MAC 
- -t 1.098517024 -s 9 -d 0 -p ack -e 67 -c 2 -a 0 -i 1 -k MAC
h -t 1.098517024 -s 9 -d 0 -p ack -e 67 -c 2 -a 0 -i 1 -k MAC
+ -t 1.101045716 -s 0 -d 9 -p ACK -e 5 -c 2 -a 0 -i 1 -k MAC 
- -t 1.101045716 -s 0 -d 9 -p ACK -e 5 -c 2 -a 0 -i 1 -k MAC
h -t 1.101045716 -s 0 -d 9 -p ACK -e 5 -c 2 -a 0 -i 1 -k MAC
r -t 1.101398408 -s 9 -d 9 -p ACK -e 5 -c 2 -a 0 -i 1 -k MAC
r -t 1.102037716 -s 0 -d 0 -p ack -e 60 -c 2 -a 0 -i 1 -k MAC
r -t 1.102062716 -s 0 -d 0 -p ack -e 60 -c 2 -a 0 -i 1 -k AGT
+ -t 1.102062716 -s 0 -d -1 -p tcp -e 592 -c 2 -a 0 -i 2 -k AGT 
- -t 1.102062716 -s 0 -d -1 -p tcp -e 592 -c 2 -a 0 -i 2 -k AGT
h -t 1.102062716 -s 0 -d -1 -p tcp -e 592 -c 2 -a 0 -i 2 -k AGT
+ -t 1.102062716 -s 0 -d -1 -p tcp -e 592 -c 2 -a 0 -i 3 -k AGT 
- -t 1.102062716 -s 0 -d -1 -p tcp -e 592 -c 2 -a 0 -i 3 -k AGT
h -t 1.102062716 -s 0 -d -1 -p tcp -e 592 -c 2 -a 0 -i 3 -k AGT
+ -t 1.103367716 -s 0 -d 9 -p tcp -e 107 -c 2 -a 0 -i 2 -k MAC 
- -t 1.103367716 -s 0 -d 9 -p tcp -e 107 -c 2 -a 0 -i 2 -k MAC
h -t 1.103367716 -s 0 -d 9 -p tcp -e 107 -c 2 -a 0 -i 2 -k MAC
+ -t 1.107176408 -s 9 -d 0 -p ACK -e 5 -c 2 -a 0 -i 2 -k MAC 
- -t 1.107176408 -s 9 -d 0 -p ACK -e 5 -c 2 -a 0 -i 2 -k MAC
h -t 1.107176408 -s 9 -d 0 -p ACK -e 5 -c 2 -a 0 -i 2 -k MAC
r -t 1.107529100 -s 0 -d 0 -p ACK -e 5 -c 2 -a 0 -i 2 -k MAC
r -t 1.108168408 -s 9 -d 9 -p tcp -e 100 -c 2 -a 0 -i 2 -k MAC
+ -t 1.108169100 -s 0 -d 9 -p tcp -e 107 -c 2 -a 0 -i 3 -k MAC 
- -t 1.108169100 -s 0 -d 9 -p tcp -e 107 -c 2 -a 0 -i 3 -k MAC
h -t 1.108169100 -s 0 -d 9 -p tcp -e 107 -c 2 -a 0 -i 3 -k MAC
+ -t 1.111977791 -s 9 -d 0 -p ACK -e 5 -c 2 -a 0 -i 3 -k MAC 
- -t 1.111977791 -s 9 -d 0 -p ACK -e 5 -c 2 -a 0 -i 3 -k MAC
h -t 1.111977791 -s 9 -d 0 -p ACK -e 5 -c 2 -a 0 -i 3 -k MAC
r -t 1.112330483 -s 0 -d 0 -p ACK -e 5 -c 2 -a 0 -i 3 -k MAC
r -t 1.112969791 -s 9 -d 9 -p tcp -e 100 -c 2 -a 0 -i 3 -k MAC
+ -t 1.114249791 -s 9 -d 6 -p tcp -e 107 -c 2 -a 0 -i 2 -k MAC 
- -t 1.114249791 -s 9 -d 6 -p tcp -e 107 -c 2 -a 0 -i 2 -k MAC
h -t 1.114249791 -s 9 -d 6 -p tcp -e 107 -c 2 -a 0 -i 2 -k MAC
+ -t 1.118058375 -s 6 -d 9 -p ACK -e 5 -c 2 -a 0 -i 2 -k MAC 
- -t 1.118058375 -s 6 -d 9 -p ACK -e 5 -c 2 -a 0 -i 2 -k MAC
h -t 1.118058375 -s 6 -d 9 -p ACK -e 5 -c 2 -a 0 -i 2 -k MAC
r -t 1.118410958 -s 9 -d 9 -p ACK -e 5 -c 2 -a 0 -i 2 -k MAC
r -t 1.119050375 -s 6 -d 6 -p tcp -e 100 -c 2 -a 0 -i 2 -k MAC
+ -t 1.120970958 -s 9 -d 6 -p tcp -e 107 -c 2 -a 0 -i 3 -k MAC 
- -t 1.120970958 -s 9 -d 6 -p tcp -e 107 -c 2 -a 0 -i 3 -k MAC
h -t 1.120970958 -s 9 -d 6 -p tcp -e 107 -c 2 -a 0 -i 3 -k MAC
+ -t 1.124779542 -s 6 -d 9 -p ACK -e 5 -c 2 -a 0 -i 3 -k MAC 
- -t 1.124779542 -s 6 -d 9 -p ACK -e 5 -c 2 -a 0 -i 3 -k MAC
h -t 1.124779542 -s 6 -d 9 -p ACK -e 5 -c 2 -a 0 -i 3 -k MAC
r -t 1.125132125 -s 9 -d 9 -p ACK -e 5 -c 2 -a 0 -i 3 -k MAC
r -t 1.125771542 -s 6 -d 6 -p tcp -e 100 -c 2 -a 0 -i 3 -k MAC
+ -t 1.127691542 -s 6 -d 7 -p tcp -e 107 -c 2 -a 0 -i 2 -k MAC 
- -t 1.127691542 -s 6 -d 7 -p tcp -e 107 -c 2 -a 0 -i 2 -k MAC
h -t 1.127691542 -s 6 -d 7 -p tcp -e 107 -c 2 -a 0 -i 2 -k MAC
+ -t 1.131499877 -s 7 -d 6 -p ACK -e 5 -c 2 -a 0 -i 2 -k MAC 
- -t 1.131499877 -s 7 -d 6 -p ACK -e 5 -c 2 -a 0 -i 2 -k MAC
h -t 1.131499877 -s 7 -d 6 -p ACK -e 5 -c 2 -a 0 -i 2 -k MAC
r -t 1.131852212 -s 6 -d 6 -p ACK -e 5 -c 2 -a 0 -i 2 -k MAC
r -t 1.132491877 -s 7 -d 7 -p tcp -e 100 -c 2 -a 0 -i 2 -k MAC
r -t 1.132516877 -s 7 -d 7 -p tcp -e 100 -c 2 -a 0 -i 2 -k AGT
+ -t 1.132516877 -s 7 -d -1 -p ack -e 40 -c 2 -a 0 -i 4 -k AGT 
- -t 1.132516877 -s 7 -d -1 -p ack -e 40 -c 2 -a 0 -i 4 -k AGT
h -t 1.132516877 -s 7 -d -1 -p ack -e 40 -c 2 -a 0 -i 4 -k AGT
+ -t 1.132812212 -s 6 -d 7 -p tcp -e 107 -c 2 -a 0 -i 3 -k MAC 
- -t 1.132812212 -s 6 -d 7 -p tcp -e 107 -c 2 -a 0 -i 3 -k MAC
h -t 1.132812212 -s 6 -d 7 -p tcp -e 107 -c 2 -a 0 -i 3 -k MAC
+ -t 1.132861877 -s 7 -d 6 -p ack -e 67 -c 2 -a 0 -i 4 -k MAC 
- -t 1.132861877 -s 7 -d 6 -p ack -e 67 -c 2 -a 0 -i 4 -k MAC
h -t 1.132861877 -s 7 -d 6 -p ack -e 67 -c 2 -a 0 -i 4 -k MAC
+ -t 1.137661877 -s 7 -d 6 -p ack -e 67 -c 2 -a 0 -i 4 -k MAC 
- -t 1.137661877 -s 7 -d 6 -p ack -e 67 -c 2 -a 0 -i 4 -k MAC
h -t 1.137661877 -s 7 -d 6 -p ack -e 67 -c 2 -a 0 -i 4 -k MAC
+ -t 1.140190212 -s 6 -d 7 -p ACK -e 5 -c 2 -a 0 -i 4 -k MAC 
- -t 1.140190212 -s 6 -d 7 -p ACK -e 5 -c 2 -a 0 -i 4 -k MAC
h -t 1.140190212 -s 6 -d 7 -p ACK -e 5 -c 2 -a 0 -i 4 -k MAC
r -t 1.140542547 -s 7 -d 7 -p ACK -e 5 -c 2 -a 0 -i 4 -k MAC
r -t 1.141182212 -s 6 -d 6 -p ack -e 60 -c 2 -a 0 -i 4 -k MAC
+ -t 1.142462212 -s 6 -d 7 -p tcp -e 107 -c 2 -a 0 -i 3 -k MAC 
- -t 1.142462212 -s 6 -d 7 -p tcp -e 107 -c 2 -a 0 -i 3 -k MAC
h -t 1.142462212 -s 6 -d 7 -p tcp -e 107 -c 2 -a 0 -i 3 -k MAC
+ -t 1.146270547 -s 7 -d 6 -p ACK -e 5 -c 2 -a 0 -i 3 -k MAC 
- -t 1.146270547 -s 7 -d 6 -p ACK -e 5 -c 2 -a 0 -i 3 -k MAC
h -t 1.146270547 -s 7 -d 6 -p ACK -e 5 -c 2 -a 0 -i 3 -k MAC
r -t 1.146622882 -s 6 -d 6 -p ACK -e 5 -c 2 -a 0 -i 3 -k MAC
r -t 1.147262547 -s 7 -d 7 -p tcp -e 100 -c 2 -a 0 -i 3 -k MAC
r -t 1.147287547 -s 7 -d 7 -p tcp -e 100 -c 2 -a 0 -i 3 -k AGT
+ -t 1.147287547 -s 7 -d -1 -p ack -e 40 -c 2 -a 0 -i 5 -k AGT 
- -t 1.147287547 -s 7 -d -1 -p ack -e 40 -c 2 -a 0 -i 5 -k AGT
h -t 1.147287547 -s 7 -d -1 -p ack -e 40 -c 2 -a 0 -i 5 -k AGT
+ -t 1.147582882 -s 6 -d 9 -p ack -e 67 -c 2 -a 0 -i 4 -k MAC 
- -t 1.147582882 -s 6 -d 9 -p ack -e 67 -c 2 -a 0 -i 4 -k MAC
h -t 1.147582882 -s 6 -d 9 -p ack -e 67 -c 2 -a 0 -i 4 -k MAC
+ -t 1.150111465 -s 9 -d 6 -p ACK -e 5 -c 2 -a 0 -i 4 -k MAC 
- -t 1.150111465 -s 9 -d 6 -p ACK -e 5 -c 2 -a 0 -i 4 -k MAC
h -t 1.150111465 -s 9 -d 6 -p ACK -e 5 -c 2 -a 0 -i 4 -k MAC
r -t 1.150464049 -s 6 -d 6 -p ACK -e 5 -c 2 -a 0 -i 4 -k MAC
r -t 1.151103465 -s 9 -d 9 -p ack -e 60 -c 2 -a 0 -i 4 -k MAC
+ -t 1.151920547 -s 7 -d 6 -p ack -e 67 -c 2 -a 0 -i 5 -k MAC 
- -t 1.151920547 -s 7 -d 6 -p ack -e 67 -c 2 -a 0 -i 5 -k MAC
h -t 1.151920547 -s 7 -d 6 -p ack -e 67 -c 2 -a 0 -i 5 -k MAC
+ -t 1.154448882 -s 6 -d 7 -p ACK -e 5 -c 2 -a 0 -i 5 -k MAC 
- -t 1.154448882 -s 6 -d 7 -p ACK -e 5 -c 2 -a 0 -i 5 -k MAC
h -t 1.154448882 -s 6 -d 7 -p ACK -e 5 -c 2 -a 0 -i 5 -k MAC
r -t 1.154801217 -s 7 -d 7 -p ACK -e 5 -c 2 -a 0 -i 5 -k MAC
r -t 1.155440882 -s 6 -d 6 -p ack -e 60 -c 2 -a 0 -i 5 -k MAC
+ -t 1.158050882 -s 6 -d 9 -p ack -e 67 -c 2 -a 0 -i 5 -k MAC 
- -t 1.158050882 -s 6 -d 9 -p ack -e 67 -c 2 -a 0 -i 5 -k MAC
h -t 1.158050882 -s 6 -d 9 -p ack -e 67 -c 2 -a 0 -i 5 -k MAC
+ -t 1.160579465 -s 9 -d 6 -p ACK -e 5 -c 2 -a 0 -i 5 -k MAC 
- -t 1.160579465 -s 9 -d 6 -p ACK -e 5 -c 2 -a 0 -i 5 -k MAC
h -t 1.160579465 -s 9 -d 6 -p ACK -e 5 -c 2 -a 0 -i 5 -k MAC
r -t 1.160932049 -s 6 -d 6 -p ACK -e 5 -c 2 -a 0 -i 5 -k MAC
r -t 1.161571465 -s 9 -d 9 -p ack -e 60 -c 2 -a 0 -i 5 -k MAC
+ -t 1.161891465 -s 9 -d 0 -p ack -e 67 -c 2 -a 0 -i 4 -k MAC 
- -t 1.161891465 -s 9 -d 0 -p ack -e 67 -c 2 -a 0 -i 4 -k MAC
h -t 1.161891465 -s 9 -d 0 -p ack -e 67 -c 2 -a 0 -i 4 -k MAC
+ -t 1.164420155 -s 0 -d 9 -p ACK -e 5 -c 2 -a 0 -i 4 -k MAC 
- -t 1.164420155 -s 0 -d 9 -p ACK -e 5 -c 2 -a 0 -i 4 -k MAC
h -t 1.164420155 -s 0 -d 9 -p ACK -e 5 -c 2 -a 0 -i 4 -k MAC
r -t 1.164772845 -s 9 -d 9 -p ACK -e 5 -c 2 -a 0 -i 4 -k MAC
r -t 1.165412155 -s 0 -d 0 -p ack -e 60 -c 2 -a 0 -i 4 -k MAC
r -t 1.165437155 -s 0 -d 0 -p ack -e 60 -c 2 -a 0 -i 4 -k AGT
+ -t 1.165437155 -s 0 -d -1 -p tcp -e 592 -c 2 -a 0 -i 6 -k AGT 
- -t 1.165437155 -s 0 -d -1 -p tcp -e 592 -c 2 -a 0 -i 6 -k AGT
h -t 1.165437155 -s 0 -d -1 -p tcp -e 592 -c 2 -a 0 -i 6 -k AGT
+ -t 1.165437155 -s 0 -d -1 -p tcp -e 592 -c 2 -a 0 -i 7 -k AGT 
- -t 1.165437155 -s 0 -d -1 -p tcp -e 592 -c 2 -a 0 -i 7 -k AGT
h -t 1.165437155 -s 0 -d -1 -p tcp -e 592 -c 2 -a 0 -i 7 -k AGT
+ -t 1.166052845 -s 9 -d 0 -p ack -e 67 -c 2 -a 0 -i 5 -k MAC 
- -t 1.166052845 -s 9 -d 0 -p ack -e 67 -c 2 -a 0 -i 5 -k MAC
h -t 1.166052845 -s 9 -d 0 -p ack -e 67 -c 2 -a 0 -i 5 -k MAC
+ -t 1.166102155 -s 0 -d 9 -p tcp -e 107 -c 2 -a 0 -i 6 -k MAC 
- -t 1.166102155 -s 0 -d 9 -p tcp -e 107 -c 2 -a 0 -i 6 -k MAC
h -t 1.166102155 -s 0 -d 9 -p tcp -e 107 -c 2 -a 0 -i 6 -k MAC
+ -t 1.171492845 -s 9 -d 0 -p ack -e 67 -c 2 -a 0 -i 5 -k MAC 
- -t 1.171492845 -s 9 -d 0 -p ack -e 67 -c 2 -a 0 -i 5 -k MAC
h -t 1.171492845 -s 9 -d 0 -p ack -e 67 -c 2 -a 0 -i 5 -k MAC
+ -t 1.174021535 -s 0 -d 9 -p ACK -e 5 -c 2 -a 0 -i 5 -k MAC 
- -t 1.174021535 -s 0 -d 9 -p ACK -e 5 -c 2 -a 0 -i 5 -k MAC
h -t 1.174021535 -s 0 -d 9 -p ACK -e 5 -c 2 -a 0 -i 5 -k MAC
r -t 1.174374225 -s 9 -d 9 -p ACK -e 5 -c 2 -a 0 -i 5 -k MAC
r -t 1.175013535 -s 0 -d 0 -p ack -e 60 -c 2 -a 0 -i 5 -k MAC
r -t 1.175038535 -s 0 -d 0 -p ack -e 60 -c 2 -a 0 -i 5 -k AGT
+ -t 1.175038535 -s 0 -d -1 -p tcp -e 592 -c 2 -a 0 -i 8 -k AGT 
- -t 1.175038535 -s 0 -d -1 -p tcp -e 592 -c 2 -a 0 -i 8 -k AGT
h -t 1.175038535 -s 0 -d -1 -p tcp -e 592 -c 2 -a 0 -i 8 -k AGT
+ -t 1.175038535 -s 0 -d -1 -p tcp -e 592 -c 2 -a 0 -i 9 -k AGT 
- -t 1.175038535 -s 0 -d -1 -p tcp -e 592 -c 2 -a 0 -i 9 -k AGT
h -t 1.175038535 -s 0 -d -1 -p tcp -e 592 -c 2 -a 0 -i 9 -k AGT
+ -t 1.176293535 -s 0 -d 9 -p tcp -e 107 -c 2 -a 0 -i 6 -k MAC 
- -t 1.176293535 -s 0 -d 9 -p tcp -e 107 -c 2 -a 0 -i 6 -k MAC
h -t 1.176293535 -s 0 -d 9 -p tcp -e 107 -c 2 -a 0 -i 6 -k MAC
+ -t 1.180102225 -s 9 -d 0 -p ACK -e 5 -c 2 -a 0 -i 6 -k MAC 
- -t 1.180102225 -s 9 -d 0 -p ACK -e 5 -c 2 -a 0 -i 6 -k MAC
h -t 1.180102225 -s 9 -d 0 -p ACK -e 5 -c 2 -a 0 -i 6 -k MAC
r -t 1.180454914 -s 0 -d 0 -p ACK -e 5 -c 2 -a 0 -i 6 -k MAC
r -t 1.181094225 -s 9 -d 9 -p tcp -e 100 -c 2 -a 0 -i 6 -k MAC
+ -t 1.181414914 -s 0 -d 9 -p tcp -e 107 -c 2 -a 0 -i 7 -k MAC 
- -t 1.181414914 -s 0 -d 9 -p tcp -e 107 -c 2 -a 0 -i 7 -k MAC
h -t 1.181414914 -s 0 -d 9 -p tcp -e 107 -c 2 -a 0 -i 7 -k MAC
+ -t 1.181464225 -s 9 -d 6 -p tcp -e 107 -c 2 -a 0 -i 6 -k MAC 
- -t 1.181464225 -s 9 -d 6 -p tcp -e 107 -c 2 -a 0 -i 6 -k MAC
h -t 1.181464225 -s 9 -d 6 -p tcp -e 107 -c 2 -a 0 -i 6 -k MAC
d -t 1.185080808 -s 6 -d 6 -p tcp -e 107 -c 2 -a 0 -i 6 -k MAC